*****
    61
  10.7060000   7.9580000  -7.8070000  10.2100000   6.5690000  -7.9020000
  10.9050000   5.3860000  -7.7810000   9.9900000   4.3700000  -7.9610000
  10.2410000   2.9680000  -7.9430000  11.5520000   2.4830000  -8.0780000
  11.8150000   1.1060000  -8.1120000  13.1590000   0.7170000  -8.2850000
  14.2320000   1.0070000  -7.4600000  14.2160000   1.7490000  -6.4850000
  15.5200000   0.3450000  -7.8240000  16.5440000   0.3150000  -6.8750000
  17.7500000  -0.3190000  -7.1700000  17.9510000  -0.9340000  -8.4160000
  19.2800000  -1.5850000  -8.6940000  16.9180000  -0.9240000  -9.3790000
  17.1170000  -1.4900000 -10.6450000  16.6330000  -2.6620000 -11.2210000
  15.8010000  -2.4880000 -12.2570000  15.2490000  -3.5890000 -12.7920000
  15.4860000  -4.8570000 -12.3260000  16.3490000  -4.9610000 -11.2560000
  16.6920000  -6.2400000 -10.6050000  17.3710000  -7.2850000 -11.2500000
  17.6550000  -8.4750000 -10.5740000  17.2670000  -8.5900000  -9.2510000
  16.6290000  -7.6130000  -8.5790000  16.3460000  -6.4820000  -9.2730000
  16.9320000  -3.8670000 -10.7110000  15.7120000  -0.2840000  -9.0600000
  10.7560000   0.2100000  -7.9950000   9.4400000   0.6690000  -7.8290000
   8.3160000  -0.3280000  -7.7190000   8.1510000  -1.0660000  -8.8550000
   8.5130000  -1.2320000  -6.7200000   7.1060000   0.2460000  -7.4780000
   9.1890000   2.0520000  -7.8090000   8.7870000   5.0040000  -8.1830000
   8.8890000   6.3150000  -8.1470000  10.8070000   8.2400000  -6.7480000
  11.6860000   8.0320000  -8.3010000   9.9940000   8.6360000  -8.3010000
  11.9810000   5.2740000  -7.5800000  12.3860000   3.1950000  -8.1580000
  13.3470000   0.1750000  -9.1180000  16.3990000   0.7920000  -5.8940000
  18.5530000  -0.3380000  -6.4180000  19.7760000  -1.8280000  -7.7420000
  19.1230000  -2.5080000  -9.2710000  19.9130000  -0.8950000  -9.2710000
  17.5150000  -0.9060000 -11.3640000  14.5710000  -3.4670000 -13.6490000
  15.0140000  -5.7410000 -12.7800000  17.6830000  -7.1670000 -12.2980000
  18.1750000  -9.3010000 -11.0820000  17.4910000  -9.5270000  -8.7210000
  15.7980000  -5.6890000  -8.7430000  14.8970000  -0.2760000  -9.7990000
  10.9530000  -0.8720000  -8.0330000   8.1590000   2.4180000  -7.6870000
   7.8430000   4.4710000  -8.3700000
