%VERSION  VERSION_STAMP = V0001.000  DATE = 07/29/26  12:47:29                  
%FLAG TITLE                                                                     
%FORMAT(20a4)                                                                   
*****                                                                           
%FLAG POINTERS                                                                  
%FORMAT(10I8)                                                                   
      61      10      22      43      44      62      85      90       0       0
     314       1      43      62      90      25      47      15      18       0
       0       0       0       0       0       0       0       0      61       0
       0
%FLAG ATOM_NAME                                                                 
%FORMAT(20a4)                                                                   
C   C1  C2  N   C3  C4  C5  N1  C6  O   C7  C8  C9  C10 C11 C12 N2  C13 N3  C14 
C15 C16 C17 C18 C19 C20 N4  C21 N5  C22 C23 C24 C25 F   F1  F2  C26 C27 N6  H   
H1  H2  H3  H4  H5  H6  H7  H8  H9  H10 H11 H12 H13 H14 H15 H16 H17 H18 H19 H20 
H21 
%FLAG CHARGE                                                                    
%FORMAT(5E16.8)                                                                 
 -2.12107572E+00  5.67806868E+00 -4.36606308E+00 -2.76978960E+00  9.98582040E-01
 -2.89734570E+00  1.77849648E+00 -8.60274783E+00  1.25314757E+01 -1.05160893E+01
 -2.83538988E+00 -1.23911640E+00 -2.53289970E+00 -4.19112900E-02 -1.10791584E+00
  1.83316338E+00 -1.28157436E+01  1.56329112E+01 -1.34480574E+01  8.44056936E+00
 -7.35452028E+00  9.72706374E+00 -5.08037724E+00 -1.29378330E+00 -4.59748629E+00
  7.45656516E+00 -1.21724964E+01  7.98501186E+00 -1.33205013E+01 -2.16845370E+00
 -2.89734570E+00 -2.06458659E+00  1.25041423E+01 -4.26341686E+00 -4.26341686E+00
 -4.26341686E+00 -2.60578890E+00  7.46020962E+00 -1.19356065E+01  8.93494036E-01
  8.93494036E-01  8.93494036E-01  3.46223700E+00  3.40757010E+00  5.96780325E+00
  2.86090110E+00  2.66045580E+00  1.05142671E+00  1.05142671E+00  1.05142671E+00
  7.94127834E+00  5.84935830E-01  2.87912340E+00  2.60578890E+00  2.69690040E+00
  4.75602030E-01  7.12491930E-01  2.53289970E+00  2.80623420E+00  2.93379030E+00
  1.18627173E+00
%FLAG ATOMIC_NUMBER                                                             
%FORMAT(10I8)                                                                   
       6       6       6       7       6       6       6       7       6       8
       6       6       6       6       6       6       7       6       7       6
       6       6       6       6       6       6       7       6       7       6
       6       6       6       9       9       9       6       6       7       1
       1       1       1       1       1       1       1       1       1       1
       1       1       1       1       1       1       1       1       1       1
       1
%FLAG MASS                                                                      
%FORMAT(5E16.8)                                                                 
  1.20100000E+01  1.20100000E+01  1.20100000E+01  1.40100000E+01  1.20100000E+01
  1.20100000E+01  1.20100000E+01  1.40100000E+01  1.20100000E+01  1.60000000E+01
  1.20100000E+01  1.20100000E+01  1.20100000E+01  1.20100000E+01  1.20100000E+01
  1.20100000E+01  1.40100000E+01  1.20100000E+01  1.40100000E+01  1.20100000E+01
  1.20100000E+01  1.20100000E+01  1.20100000E+01  1.20100000E+01  1.20100000E+01
  1.20100000E+01  1.40100000E+01  1.20100000E+01  1.40100000E+01  1.20100000E+01
  1.20100000E+01  1.20100000E+01  1.20100000E+01  1.90000000E+01  1.90000000E+01
  1.90000000E+01  1.20100000E+01  1.20100000E+01  1.40100000E+01  1.00800000E+00
  1.00800000E+00  1.00800000E+00  1.00800000E+00  1.00800000E+00  1.00800000E+00
  1.00800000E+00  1.00800000E+00  1.00800000E+00  1.00800000E+00  1.00800000E+00
  1.00800000E+00  1.00800000E+00  1.00800000E+00  1.00800000E+00  1.00800000E+00
  1.00800000E+00  1.00800000E+00  1.00800000E+00  1.00800000E+00  1.00800000E+00
  1.00800000E+00
%FLAG ATOM_TYPE_INDEX                                                           
%FORMAT(10I8)                                                                   
       1       2       2       3       2       2       2       3       2       4
       2       2       2       2       1       2       3       2       3       2
       2       2       2       2       2       2       3       2       3       2
       2       2       1       5       5       5       2       2       3       6
       6       6       7       8       9       8       8       6       6       6
       9       7       8       8       8       7       7       8       8       8
      10
%FLAG NUMBER_EXCLUDED_ATOMS                                                     
%FORMAT(10I8)                                                                   
       9      10      11      11      13      11      11      10      10       4
      10       8      10      12       7      11       8       9       7       6
       7      10      10       9       6       6       4       4       2       3
      10       7       6       3       2       1       4       3       5       2
       1       1       1       1       1       1       1       2       1       1
       1       1       1       1       1       1       1       1       1       1
       1
%FLAG NONBONDED_PARM_INDEX                                                      
%FORMAT(10I8)                                                                   
       1       2       4       7      11      16      22      29      37      46
       2       3       5       8      12      17      23      30      38      47
       4       5       6       9      13      18      24      31      39      48
       7       8       9      10      14      19      25      32      40      49
      11      12      13      14      15      20      26      33      41      50
      16      17      18      19      20      21      27      34      42      51
      22      23      24      25      26      27      28      35      43      52
      29      30      31      32      33      34      35      36      44      53
      37      38      39      40      41      42      43      44      45      54
      46      47      48      49      50      51      52      53      54      55
%FLAG RESIDUE_LABEL                                                             
%FORMAT(20a4)                                                                   
UNL 
%FLAG RESIDUE_POINTER                                                           
%FORMAT(10I8)                                                                   
       1
%FLAG BOND_FORCE_CONSTANT                                                       
%FORMAT(5E16.8)                                                                 
  3.34800000E+02  3.30600000E+02  5.00900000E+02  4.41100000E+02  4.25800000E+02
  3.52000000E+02  4.20500000E+02  4.61100000E+02  3.45800000E+02  3.84200000E+02
  4.27600000E+02  4.03200000E+02  6.37700000E+02  3.45900000E+02  3.21000000E+02
  4.17900000E+02  4.04600000E+02  4.88000000E+02  3.41500000E+02  4.50200000E+02
  3.51400000E+02  4.88500000E+02  3.56900000E+02  5.25400000E+02  3.51800000E+02
%FLAG BOND_EQUIL_VALUE                                                          
%FORMAT(5E16.8)                                                                 
  1.50150000E+00  1.09690000E+00  1.37290000E+00  1.36940000E+00  1.38020000E+00
  1.08170000E+00  1.38400000E+00  1.39840000E+00  1.08600000E+00  1.41210000E+00
  1.37890000E+00  1.01290000E+00  1.21830000E+00  1.49060000E+00  1.51560000E+00
  1.38590000E+00  1.01210000E+00  1.33900000E+00  1.08900000E+00  1.40580000E+00
  1.48540000E+00  1.33870000E+00  1.34970000E+00  1.31720000E+00  1.08180000E+00
%FLAG ANGLE_FORCE_CONSTANT                                                      
%FORMAT(5E16.8)                                                                 
  6.47000000E+01  6.60000000E+01  4.72000000E+01  7.34000000E+01  4.73000000E+01
  7.18000000E+01  7.22000000E+01  6.74000000E+01  6.85000000E+01  4.98000000E+01
  6.91000000E+01  7.49000000E+01  4.96000000E+01  6.66000000E+01  4.82000000E+01
  6.79000000E+01  6.38000000E+01  4.76000000E+01  7.42000000E+01  6.77000000E+01
  4.83000000E+01  6.43000000E+01  6.87000000E+01  6.35000000E+01  4.68000000E+01
  6.83000000E+01  6.33000000E+01  4.84000000E+01  7.27000000E+01  6.83000000E+01
  6.81000000E+01  7.09000000E+01  6.88000000E+01  5.19000000E+01  6.63000000E+01
  4.81000000E+01  6.40000000E+01  6.90000000E+01  4.80000000E+01  6.82000000E+01
  6.85000000E+01  4.79000000E+01  6.67000000E+01  6.60000000E+01  7.09000000E+01
  5.06000000E+01  3.94000000E+01
%FLAG ANGLE_EQUIL_VALUE                                                         
%FORMAT(5E16.8)                                                                 
  2.08479669E+00  2.11097664E+00  1.92841512E+00  1.86732857E+00  2.24239998E+00
  1.84114862E+00  1.94866095E+00  1.97484090E+00  1.91811767E+00  2.10364625E+00
  2.06542352E+00  1.95860933E+00  2.12144862E+00  2.09474507E+00  2.09230160E+00
  2.09771213E+00  2.15914774E+00  2.02458280E+00  2.14762857E+00  2.01149283E+00
  2.05163542E+00  2.10015559E+00  2.13977458E+00  2.10783504E+00  1.92806605E+00
  2.11097664E+00  2.22459762E+00  2.02580453E+00  2.04098890E+00  2.04587583E+00
  2.06036207E+00  2.22110696E+00  2.14570870E+00  2.02510640E+00  2.10643878E+00
  2.10033012E+00  2.11376916E+00  2.12267035E+00  2.09195254E+00  2.03522931E+00
  2.15687881E+00  2.09596680E+00  2.06612165E+00  1.95075534E+00  1.87378629E+00
  2.19073822E+00  1.87762601E+00
%FLAG DIHEDRAL_FORCE_CONSTANT                                                   
%FORMAT(5E16.8)                                                                 
  4.00000000E+00  4.75000000E+00  1.70000000E+00  0.00000000E+00  3.00000000E-01
  3.62500000E+00  4.50000000E-01  2.50000000E+00  1.00000000E+00  2.00000000E+00
  0.00000000E+00  1.05000000E+00  4.80000000E+00  1.10000000E+00  1.05000000E+01
%FLAG DIHEDRAL_PERIODICITY                                                      
%FORMAT(5E16.8)                                                                 
  2.00000000E+00  2.00000000E+00  2.00000000E+00  3.00000000E+00  2.00000000E+00
  2.00000000E+00  2.00000000E+00  2.00000000E+00  2.00000000E+00  1.00000000E+00
  2.00000000E+00  2.00000000E+00  2.00000000E+00  2.00000000E+00  2.00000000E+00
%FLAG DIHEDRAL_PHASE                                                            
%FORMAT(5E16.8)                                                                 
  3.14159400E+00  3.14159400E+00  3.14159400E+00  0.00000000E+00  3.14159400E+00
  3.14159400E+00  3.14159400E+00  3.14159400E+00  3.14159400E+00  0.00000000E+00
  0.00000000E+00  3.14159400E+00  3.14159400E+00  3.14159400E+00  3.14159400E+00
%FLAG SCEE_SCALE_FACTOR                                                         
%FORMAT(5E16.8)                                                                 
  1.20000000E+00  1.20000000E+00  1.20000000E+00  1.20000000E+00  1.20000000E+00
  1.20000000E+00  1.20000000E+00  1.20000000E+00  1.20000000E+00  1.20000000E+00
  1.20000000E+00  1.20000000E+00  1.20000000E+00  0.00000000E+00  0.00000000E+00
%FLAG SCNB_SCALE_FACTOR                                                         
%FORMAT(5E16.8)                                                                 
  2.00000000E+00  2.00000000E+00  2.00000000E+00  2.00000000E+00  2.00000000E+00
  2.00000000E+00  2.00000000E+00  2.00000000E+00  2.00000000E+00  2.00000000E+00
  2.00000000E+00  2.00000000E+00  2.00000000E+00  0.00000000E+00  0.00000000E+00
%FLAG SOLTY                                                                     
%FORMAT(5E16.8)                                                                 
  0.00000000E+00  0.00000000E+00  0.00000000E+00  0.00000000E+00  0.00000000E+00
  0.00000000E+00  0.00000000E+00  0.00000000E+00  0.00000000E+00  0.00000000E+00
  0.00000000E+00  0.00000000E+00  0.00000000E+00  0.00000000E+00  0.00000000E+00
  0.00000000E+00  0.00000000E+00  0.00000000E+00
%FLAG LENNARD_JONES_ACOEF                                                       
%FORMAT(5E16.8)                                                                 
  1.04308023E+06  9.24822270E+05  8.19971662E+05  9.95480466E+05  8.82619071E+05
  9.44293233E+05  6.47841731E+05  5.74393458E+05  6.06829342E+05  3.79876399E+05
  4.68919175E+05  4.15756030E+05  4.42327516E+05  2.80970524E+05  2.06132451E+05
  9.71708117E+04  8.61541883E+04  8.96776989E+04  5.44261042E+04  4.09569055E+04
  7.51607703E+03  7.18621074E+04  6.37148278E+04  6.58473870E+04  3.93690817E+04
  2.98748723E+04  5.34045360E+03  3.76169105E+03  8.59947003E+04  7.62451550E+04
  7.91627154E+04  4.77908183E+04  3.60700839E+04  6.55825601E+03  4.64559155E+03
  5.71629601E+03  2.56678134E+03  2.27577561E+03  2.12601181E+03  1.02595236E+03
  8.77867742E+02  1.07193646E+02  6.63368273E+01  8.90987508E+01  1.39982777E-01
  5.98885646E+04  5.30987710E+04  5.46147253E+04  3.23283631E+04  2.46694355E+04
  4.33325458E+03  3.03448006E+03  3.76169105E+03  4.90239937E+01  2.43828624E+03
%FLAG LENNARD_JONES_BCOEF                                                       
%FORMAT(5E16.8)                                                                 
  6.75612247E+02  5.99015525E+02  5.31102864E+02  7.36907417E+02  6.53361429E+02
  8.01323529E+02  6.26720080E+02  5.55666448E+02  6.77220874E+02  5.64885984E+02
  3.91440521E+02  3.47061425E+02  4.24469669E+02  3.56654459E+02  2.24268406E+02
  1.26919150E+02  1.12529845E+02  1.36131731E+02  1.11805549E+02  7.12034334E+01
  2.17257828E+01  1.07908863E+02  9.56748258E+01  1.15327881E+02  9.40124296E+01
  6.01226754E+01  1.81057616E+01  1.50233639E+01  1.18043746E+02  1.04660679E+02
  1.26451907E+02  1.03580945E+02  6.60630842E+01  2.00642027E+01  1.66953734E+01
  1.85196588E+01  2.06278363E+01  1.82891803E+01  2.09604198E+01  1.53505284E+01
  1.04244203E+01  2.59456373E+00  2.01792524E+00  2.33864085E+00  9.37598976E-02
  9.85097219E+01  8.73413012E+01  1.05031585E+02  8.51921330E+01  5.46342361E+01
  1.63092814E+01  1.34932874E+01  1.50233639E+01  1.73473071E+00  1.20953369E+01
%FLAG BONDS_INC_HYDROGEN                                                        
%FORMAT(10I8)                                                                   
       0     117       2       0     120       2       0     123       2       6
     126       6      15     129       9      21     132      12      33     135
       9      36     138       9      42     141       2      42     144       2
      42     147       2      48     150      17      57     153      19      60
     156       9      69     159       9      72     162       9      75     165
      19      81     168      19      87     171       9      90     174       9
     108     177       9     111     180      25
%FLAG BONDS_WITHOUT_HYDROGEN                                                    
%FORMAT(10I8)                                                                   
       0       3       1       3       6       3       3     114       4       6
       9       5       9      12       7       9     111       5      12      15
       8      12     108       8      15      18       8      18      21      10
      18      90       8      21      24      11      24      27      13      24
      30      14      30      33       8      30      87       8      33      36
       8      36      39       8      39      42      15      39      45       8
      45      48      16      45      87       8      48      51      16      51
      54      18      51      84      18      54      57      18      57      60
       8      60      63      20      63      66      21      63      84      22
      66      69      20      66      81      20      69      72       8      72
      75       8      75      78      18      78      81      18      90      93
       8      93      96      15      93     108       8      96      99      23
      96     102      23      96     105      23     111     114      24
%FLAG ANGLES_INC_HYDROGEN                                                       
%FORMAT(10I8)                                                                   
       3       0     117       3       3       0     120       3       3       0
     123       3       3       6     126       5       9       6     126      10
       9     111     180      13      12      15     129      15      12     108
     177      15      18      15     129      15      18      21     132      18
      18      90     174      15      24      21     132      21      30      33
     135      15      30      87     171      15      33      36     138      15
      36      33     135      15      39      36     138      15      39      42
     141      25      39      42     144      25      39      42     147      25
      45      48     150      28      45      87     171      15      51      48
     150      28      54      57     153      34      57      60     156      15
      60      57     153      36      63      60     156      39      66      69
     159      39      66      81     168      42      69      72     162      15
      72      69     159      15      72      75     165      36      75      72
     162      15      78      75     165      34      78      81     168      34
      93      90     174      15      93     108     177      15     114     111
     180      46     117       0     120      47     117       0     123      47
     120       0     123      47     141      42     144      47     141      42
     147      47     144      42     147      47
%FLAG ANGLES_WITHOUT_HYDROGEN                                                   
%FORMAT(10I8)                                                                   
       0       3       6       1       0       3     114       2       3       6
       9       4       3     114     111       6       6       3     114       7
       6       9      12       8       6       9     111       9       9      12
      15      11       9      12     108      11       9     111     114      12
      12       9     111       8      12      15      18      14      12     108
      93      14      15      12     108      14      15      18      21      16
      15      18      90      14      18      21      24      17      18      90
      93      14      21      18      90      16      21      24      27      19
      21      24      30      20      24      30      33      22      24      30
      87      22      27      24      30      23      30      33      36      14
      30      87      45      14      33      30      87      14      33      36
      39      14      36      39      42      24      36      39      45      14
      39      45      48      26      39      45      87      14      42      39
      45      24      45      48      51      27      48      45      87      26
      48      51      54      29      48      51      84      29      51      54
      57      30      51      84      63      31      54      51      84      32
      54      57      60      33      57      60      63      35      60      63
      66      37      60      63      84      38      63      66      69      37
      63      66      81      37      66      63      84      40      66      69
      72      35      66      81      78      41      69      66      81      43
      69      72      75      14      72      75      78      33      75      78
      81      30      90      93      96      24      90      93     108      14
      93      96      99      44      93      96     102      44      93      96
     105      44      96      93     108      24      99      96     102      45
      99      96     105      45     102      96     105      45
%FLAG DIHEDRALS_INC_HYDROGEN                                                    
%FORMAT(10I8)                                                                   
       0       3       6     126       1       3     114     111     180       2
     117       0       3       6       4     120       0       3       6       4
     123       0       3       6       4       6       9     111     180       3
       9      12      15     129       6       9      12     108     177       6
      12       9       6     126       3      12       9     111     180       3
      15      12     108     177       6      15      18      21     132       7
      15      18      90     174       6      21      18      15     129       6
      21      18      90     174       6      24      30      33     135       6
      24      30      87     171       6      27      24      21     132      10
      27      24     -21     132       8      30      24      21     132       8
      30      33      36     138       6      33      30      87     171       6
      36      39      42     141      11      36      39      42     144      11
      36      39      42     147      11      39      36      33     135       6
      39      45      48     150      12      39      45      87     171       6
      42      39      36     138       6      45      39      36     138       6
      45      39      42     141      11      45      39      42     144      11
      45      39      42     147      11      48      45      87     171       6
      51      54      57     153      13      54      51      48     150      12
      54      57      60     156       6      63      60      57     153       6
      63      66      69     159       6      63      66      81     168       6
      66      63      60     156       6      66      69      72     162       6
      69      66      81     168       6      69      72      75     165       6
      75      72      69     159       6      75      78      81     168      13
      78      75      72     162       6      81      78      75     165      13
      81      66      69     159       6      84      63      60     156       6
      84      51      48     150      12      87      45      48     150      12
      87      30      33     135       6      90      18      15     129       6
      90      18      21     132       7      90      93     108     177       6
      96      93      90     174       6      96      93     108     177       6
     108      93      90     174       6     108      12      15     129       6
     111       9       6     126       3     117       0       3     114       4
     120       0       3     114       4     123       0       3     114       4
     114       3       6     126       1     135      33      36     138       6
     153      57      60     156       6     159      69      72     162       6
     162      72      75     165       6       3     126      -6      -9      14
      12      18     -15    -129      14      24      18     -21    -132      14
      30      36     -33    -135      14      33      39     -36    -138      14
      45      51     -48    -150      14      60     153     -57     -54      14
      57      63     -60    -156      14      72      66     -69    -159      14
      69      75     -72    -162      14      72     165     -75     -78      14
      66     168     -81     -78      14      30      45     -87    -171      14
      18      93     -90    -174      14      12      93    -108    -177      14
     180       9    -111    -114      14
%FLAG DIHEDRALS_WITHOUT_HYDROGEN                                                
%FORMAT(10I8)                                                                   
       0       3       6       9       1       0       3     114     111       2
       3       6       9      12       3       3       6      -9     111       3
       3     114    -111       9       2       6       3    -114     111       2
       6       9      12      15       5       6       9      12     108       5
       6       9    -111     114       3       9       6      -3     114       1
       9      12      15      18       6       9      12     108      93       6
      12       9     111     114       3      12      15      18      21       6
      12      15      18      90       6      12     108     -93      90       6
      12     108      93      96       6      15      12       9     111       5
      15      12     108      93       6      15      18      21      24       7
      15      18     -90      93       6      18      15      12     108       6
      18      21      24      27       8      18      21      24      30       8
      18      90      93      96       6      18      90     -93     108       6
      21      18      90      93       6      21      24      30      33       9
      21      24      30      87       9      24      21      18      90       7
      24      30      33      36       6      24      30      87      45       6
      27      24      30      33       9      27      24      30      87       9
      30      33      36      39       6      30      87     -45      39       6
      30      87      45      48       6      33      30      87      45       6
      33      36      39      42       6      33      36     -39      45       6
      36      33      30      87       6      36      39      45      48       6
      36      39     -45      87       6      39      45      48      51      12
      42      39      45      48       6      42      39      45      87       6
      45      48      51      54      12      45      48      51      84      12
      48      51      54      57      13      48      51      84      63      13
      51      48      45      87      12      51      54      57      60      13
      51      84     -63      60      13      51      84      63      66      13
      54      51      84      63      13      54      57     -60      63       6
      57      54      51      84      13      57      60      63      66       6
      57      60     -63      84       6      60      63      66      69       9
      60      63      66      81       9      63      66      69      72       6
      63      66      81      78       6      66      69      72      75       6
      66      81     -78      75      13      69      66      63      84       9
      69      66      81      78       6      69      72     -75      78       6
      72      69      66      81       6      72      75     -78      81      13
      81      66      63      84       9      90      93      96      99      11
      90      93      96     102      11      90      93      96     105      11
      99      96      93     108      11     102      96      93     108      11
     105      96      93     108      11     108      12       9     111       5
       0       6      -3    -114      14      12       6      -9    -111      14
      15     108     -12      -9      14      15      90     -18     -21      14
      30      21     -24     -27      15      24      33     -30     -87      14
      36      45     -39     -42      14      39      87     -45     -48      14
      54      84     -51     -48      15      60      66     -63     -84      14
      69      81     -66     -63      14      96      90     -93    -108      14
%FLAG EXCLUDED_ATOMS_LIST                                                       
%FORMAT(10I8)                                                                   
       2       3       4      38      39      40      41      42      43       3
       4       5      38      39      40      41      42      43      61       4
       5       6      37      38      39      40      41      42      43      61
       5       6       7      32      37      38      39      43      44      60
      61       6       7       8      31      32      33      37      38      39
      43      44      60      61       7       8       9      31      32      37
      38      44      45      59      60       8       9      10      11      31
      32      33      37      44      45      59       9      10      11      12
      30      31      32      44      45      59      10      11      12      13
      16      30      31      45      46      58      11      12      30      45
      12      13      14      16      17      30      45      46      47      58
      13      14      15      16      30      46      47      58      14      15
      16      17      30      46      47      48      49      50      15      16
      17      18      30      46      47      48      49      50      51      58
      16      17      30      47      48      49      50      17      18      19
      29      30      47      48      49      50      51      58      18      19
      20      22      29      30      51      58      19      20      21      22
      23      29      30      51      52      20      21      22      29      51
      52      53      21      22      23      29      52      53      22      23
      24      28      29      52      53      23      24      25      27      28
      29      52      53      54      57      24      25      26      27      28
      29      53      54      55      57      25      26      27      28      29
      54      55      56      57      26      27      28      54      55      56
      27      28      54      55      56      57      28      55      56      57
      29      54      56      57      51      53      46      51      58      32
      33      34      35      36      37      44      45      59      60      33
      34      35      36      37      59      60      34      35      36      37
      59      60      35      36      37      36      37      37      38      44
      59      60      39      43      61      40      41      42      43      61
      41      42      42       0       0       0       0      47       0      49
      50      50       0       0      53       0      55      56       0       0
       0       0       0       0
%FLAG HBOND_ACOEF                                                               
%FORMAT(5E16.8)                                                                 

%FLAG HBOND_BCOEF                                                               
%FORMAT(5E16.8)                                                                 

%FLAG HBCUT                                                                     
%FORMAT(5E16.8)                                                                 

%FLAG AMBER_ATOM_TYPE                                                           
%FORMAT(20a4)                                                                   
c3  cc  cd  na  ca  ca  ca  n   c   o   ca  ca  ca  ca  c3  ca  nh  ca  nb  ca  
ca  cp  cp  ca  ca  ca  nb  ca  nb  ca  ca  ca  c3  f   f   f   ca  cd  nc  hc  
hc  hc  h4  ha  hn  ha  ha  hc  hc  hc  hn  h4  ha  ha  ha  h4  h4  ha  ha  ha  
h5  
%FLAG TREE_CHAIN_CLASSIFICATION                                                 
%FORMAT(20a4)                                                                   
BLA BLA BLA BLA BLA BLA BLA BLA BLA BLA BLA BLA BLA BLA BLA BLA BLA BLA BLA BLA 
BLA BLA BLA BLA BLA BLA BLA BLA BLA BLA BLA BLA BLA BLA BLA BLA BLA BLA BLA BLA 
BLA BLA BLA BLA BLA BLA BLA BLA BLA BLA BLA BLA BLA BLA BLA BLA BLA BLA BLA BLA 
BLA 
%FLAG JOIN_ARRAY                                                                
%FORMAT(10I8)                                                                   
       0       0       0       0       0       0       0       0       0       0
       0       0       0       0       0       0       0       0       0       0
       0       0       0       0       0       0       0       0       0       0
       0       0       0       0       0       0       0       0       0       0
       0       0       0       0       0       0       0       0       0       0
       0       0       0       0       0       0       0       0       0       0
       0
%FLAG IROTAT                                                                    
%FORMAT(10I8)                                                                   
       0       0       0       0       0       0       0       0       0       0
       0       0       0       0       0       0       0       0       0       0
       0       0       0       0       0       0       0       0       0       0
       0       0       0       0       0       0       0       0       0       0
       0       0       0       0       0       0       0       0       0       0
       0       0       0       0       0       0       0       0       0       0
       0
%FLAG RADIUS_SET                                                                
%FORMAT(1a80)                                                                   
modified Bondi radii (mbondi)                                                   
%FLAG RADII                                                                     
%FORMAT(5E16.8)                                                                 
  1.70000000E+00  1.70000000E+00  1.70000000E+00  1.55000000E+00  1.70000000E+00
  1.70000000E+00  1.70000000E+00  1.55000000E+00  1.70000000E+00  1.50000000E+00
  1.70000000E+00  1.70000000E+00  1.70000000E+00  1.70000000E+00  1.70000000E+00
  1.70000000E+00  1.55000000E+00  1.70000000E+00  1.55000000E+00  1.70000000E+00
  1.70000000E+00  1.70000000E+00  1.70000000E+00  1.70000000E+00  1.70000000E+00
  1.70000000E+00  1.55000000E+00  1.70000000E+00  1.55000000E+00  1.70000000E+00
  1.70000000E+00  1.70000000E+00  1.70000000E+00  1.50000000E+00  1.50000000E+00
  1.50000000E+00  1.70000000E+00  1.70000000E+00  1.55000000E+00  1.30000000E+00
  1.30000000E+00  1.30000000E+00  1.30000000E+00  1.30000000E+00  1.30000000E+00
  1.30000000E+00  1.30000000E+00  1.30000000E+00  1.30000000E+00  1.30000000E+00
  1.30000000E+00  1.30000000E+00  1.30000000E+00  1.30000000E+00  1.30000000E+00
  1.30000000E+00  1.30000000E+00  1.30000000E+00  1.30000000E+00  1.30000000E+00
  1.30000000E+00
%FLAG SCREEN                                                                    
%FORMAT(5E16.8)                                                                 
  7.20000000E-01  7.20000000E-01  7.20000000E-01  7.90000000E-01  7.20000000E-01
  7.20000000E-01  7.20000000E-01  7.90000000E-01  7.20000000E-01  8.50000000E-01
  7.20000000E-01  7.20000000E-01  7.20000000E-01  7.20000000E-01  7.20000000E-01
  7.20000000E-01  7.90000000E-01  7.20000000E-01  7.90000000E-01  7.20000000E-01
  7.20000000E-01  7.20000000E-01  7.20000000E-01  7.20000000E-01  7.20000000E-01
  7.20000000E-01  7.90000000E-01  7.20000000E-01  7.90000000E-01  7.20000000E-01
  7.20000000E-01  7.20000000E-01  7.20000000E-01  8.80000000E-01  8.80000000E-01
  8.80000000E-01  7.20000000E-01  7.20000000E-01  7.90000000E-01  8.50000000E-01
  8.50000000E-01  8.50000000E-01  8.50000000E-01  8.50000000E-01  8.50000000E-01
  8.50000000E-01  8.50000000E-01  8.50000000E-01  8.50000000E-01  8.50000000E-01
  8.50000000E-01  8.50000000E-01  8.50000000E-01  8.50000000E-01  8.50000000E-01
  8.50000000E-01  8.50000000E-01  8.50000000E-01  8.50000000E-01  8.50000000E-01
  8.50000000E-01
%FLAG IPOL                                                                      
%FORMAT(1I8)                                                                    
       0
