%VERSION  VERSION_STAMP = V0001.000  DATE = 07/29/26  12:44:09                  
%FLAG TITLE                                                                     
%FORMAT(20a4)                                                                   
*****                                                                           
%FLAG POINTERS                                                                  
%FORMAT(10I8)                                                                   
      64      10      27      42      57      62     101      97       0       0
     355       1      42      62      97      27      50      11      17       0
       0       0       0       0       0       0       0       0      64       0
       0
%FLAG ATOM_NAME                                                                 
%FORMAT(20a4)                                                                   
C   N   C1  C2  C3  C4  C5  C6  N1  C7  C8  N2  C9  N3  C10 C11 C12 C13 N4  C14 
C15 C16 C17 F   C18 C19 C20 N5  C21 C22 N6  C23 N7  N8  C24 C25 N9  H   H1  H2  
H3  H4  H5  H6  H7  H8  H9  H10 H11 H12 H13 H14 H15 H16 H17 H18 H19 H20 H21 H22 
H23 H24 H25 H26 
%FLAG CHARGE                                                                    
%FORMAT(5E16.8)                                                                 
  7.58047680E-01  1.55618442E+00 -2.50192179E+00 -3.46405923E+00 -7.50758760E-01
 -2.53289970E+00 -4.62117528E+00  1.32877012E+01 -1.36721917E+01  3.35836989E+00
  3.67726014E+00 -1.37633032E+01  1.60520241E+01 -1.36576139E+01  8.61368121E+00
 -7.66976607E+00  5.44482324E+00 -1.58716233E+00 -1.63964255E+01 -1.80947439E+00
 -1.69467390E+00 -3.11601330E+00  2.29418757E+00 -2.56752207E+00 -3.11601330E+00
 -1.69467390E+00  8.61368121E+00 -1.36576139E+01  3.67726014E+00  3.35836989E+00
 -1.42680609E+01  1.13871153E+01 -9.78173064E+00  3.81210516E+00 -1.93338603E+00
  5.57966826E+00 -9.23506164E+00  1.05142671E+00  1.05142671E+00  1.05142671E+00
  3.17068020E+00  2.82445650E+00  1.23820529E+00  1.23820529E+00  1.26553874E+00
  1.26553874E+00  5.66713530E-01  8.44913384E-01  8.44913384E-01  8.44913384E-01
  6.45616089E+00  6.45616089E+00  2.70601155E+00  2.71512270E+00  2.71512270E+00
  2.70601155E+00  5.66713530E-01  1.26553874E+00  1.26553874E+00  1.23820529E+00
  1.23820529E+00  1.16804943E+00  3.44401470E+00  7.85381130E-01
%FLAG ATOMIC_NUMBER                                                             
%FORMAT(10I8)                                                                   
       6       7       6       6       6       6       6       6       7       6
       6       7       6       7       6       6       6       6       7       6
       6       6       6       9       6       6       6       7       6       6
       7       6       7       7       6       6       7       1       1       1
       1       1       1       1       1       1       1       1       1       1
       1       1       1       1       1       1       1       1       1       1
       1       1       1       1
%FLAG MASS                                                                      
%FORMAT(5E16.8)                                                                 
  1.20100000E+01  1.40100000E+01  1.20100000E+01  1.20100000E+01  1.20100000E+01
  1.20100000E+01  1.20100000E+01  1.20100000E+01  1.40100000E+01  1.20100000E+01
  1.20100000E+01  1.40100000E+01  1.20100000E+01  1.40100000E+01  1.20100000E+01
  1.20100000E+01  1.20100000E+01  1.20100000E+01  1.40100000E+01  1.20100000E+01
  1.20100000E+01  1.20100000E+01  1.20100000E+01  1.90000000E+01  1.20100000E+01
  1.20100000E+01  1.20100000E+01  1.40100000E+01  1.20100000E+01  1.20100000E+01
  1.40100000E+01  1.20100000E+01  1.40100000E+01  1.40100000E+01  1.20100000E+01
  1.20100000E+01  1.40100000E+01  1.00800000E+00  1.00800000E+00  1.00800000E+00
  1.00800000E+00  1.00800000E+00  1.00800000E+00  1.00800000E+00  1.00800000E+00
  1.00800000E+00  1.00800000E+00  1.00800000E+00  1.00800000E+00  1.00800000E+00
  1.00800000E+00  1.00800000E+00  1.00800000E+00  1.00800000E+00  1.00800000E+00
  1.00800000E+00  1.00800000E+00  1.00800000E+00  1.00800000E+00  1.00800000E+00
  1.00800000E+00  1.00800000E+00  1.00800000E+00  1.00800000E+00
%FLAG ATOM_TYPE_INDEX                                                           
%FORMAT(10I8)                                                                   
       1       2       3       3       3       3       3       3       2       1
       1       2       3       2       3       3       1       1       2       3
       3       3       3       4       3       3       3       2       1       1
       2       3       2       2       3       3       2       5       5       5
       6       7       5       5       5       5       6       8       8       8
       9       9       7       7       7       7       6       5       5       5
       5      10       6       6
%FLAG NUMBER_EXCLUDED_ATOMS                                                     
%FORMAT(10I8)                                                                   
       9      10      11      11      12      10      11      16      16      12
      12      15      13       7       9      15      18      10       9      15
       8       7       7       4       4       3       3       2       7       7
       4       4       4       4       3       3       5       2       1       1
       1       1       3       2       1       1       1       2       1       1
       1       1       1       1       1       1       1       3       2       1
       1       1       1       1
%FLAG NONBONDED_PARM_INDEX                                                      
%FORMAT(10I8)                                                                   
       1       2       4       7      11      16      22      29      37      46
       2       3       5       8      12      17      23      30      38      47
       4       5       6       9      13      18      24      31      39      48
       7       8       9      10      14      19      25      32      40      49
      11      12      13      14      15      20      26      33      41      50
      16      17      18      19      20      21      27      34      42      51
      22      23      24      25      26      27      28      35      43      52
      29      30      31      32      33      34      35      36      44      53
      37      38      39      40      41      42      43      44      45      54
      46      47      48      49      50      51      52      53      54      55
%FLAG RESIDUE_LABEL                                                             
%FORMAT(20a4)                                                                   
UNL 
%FLAG RESIDUE_POINTER                                                           
%FORMAT(10I8)                                                                   
       1
%FLAG BOND_FORCE_CONSTANT                                                       
%FORMAT(5E16.8)                                                                 
  3.27700000E+02  3.30600000E+02  4.25800000E+02  5.25400000E+02  5.00900000E+02
  3.52000000E+02  4.19800000E+02  3.49100000E+02  4.19800000E+02  4.35200000E+02
  5.25400000E+02  3.26600000E+02  3.00900000E+02  4.17900000E+02  4.88000000E+02
  4.61100000E+02  3.41500000E+02  3.21000000E+02  3.25900000E+02  3.30600000E+02
  3.92400000E+02  3.45800000E+02  3.57800000E+02  4.41100000E+02  5.25400000E+02
  3.51800000E+02  3.52000000E+02
%FLAG BOND_EQUIL_VALUE                                                          
%FORMAT(5E16.8)                                                                 
  1.46290000E+00  1.09690000E+00  1.38020000E+00  1.35580000E+00  1.37290000E+00
  1.08170000E+00  1.42780000E+00  1.08370000E+00  1.42780000E+00  1.37350000E+00
  1.31720000E+00  1.46400000E+00  1.53750000E+00  1.38590000E+00  1.33900000E+00
  1.39840000E+00  1.08900000E+00  1.51560000E+00  1.46470000E+00  1.09690000E+00
  1.01900000E+00  1.08600000E+00  1.34900000E+00  1.36940000E+00  1.31720000E+00
  1.08180000E+00  1.08170000E+00
%FLAG ANGLE_FORCE_CONSTANT                                                      
%FORMAT(5E16.8)                                                                 
  6.19000000E+01  6.55000000E+01  4.98000000E+01  7.34000000E+01  4.98000000E+01
  7.45000000E+01  7.00000000E+01  6.82000000E+01  4.73000000E+01  6.79000000E+01
  7.16000000E+01  4.59000000E+01  4.71000000E+01  6.82000000E+01  4.85000000E+01
  6.82000000E+01  7.16000000E+01  6.85000000E+01  6.86000000E+01  6.37000000E+01
  7.18000000E+01  7.24000000E+01  6.62000000E+01  4.96000000E+01  6.32000000E+01
  4.64000000E+01  6.34000000E+01  7.27000000E+01  6.83000000E+01  7.09000000E+01
  6.88000000E+01  5.19000000E+01  6.35000000E+01  6.66000000E+01  4.81000000E+01
  6.31000000E+01  6.62000000E+01  6.36000000E+01  4.63000000E+01  4.74000000E+01
  6.60000000E+01  4.82000000E+01  6.71000000E+01  7.40000000E+01  4.96000000E+01
  5.06000000E+01  5.21000000E+01  3.92000000E+01  3.94000000E+01  4.14000000E+01
%FLAG ANGLE_EQUIL_VALUE                                                         
%FORMAT(5E16.8)                                                                 
  2.20714432E+00  2.09753759E+00  1.89856997E+00  1.86732857E+00  2.10364625E+00
  1.81200161E+00  1.96105279E+00  1.99299233E+00  2.24239998E+00  1.93208031E+00
  1.96454345E+00  2.23332427E+00  2.11307103E+00  1.99299233E+00  2.12511381E+00
  2.08950908E+00  1.96454345E+00  1.91811767E+00  2.05547514E+00  2.08950908E+00
  1.84114862E+00  2.10574065E+00  1.92789152E+00  1.91619781E+00  1.99857738E+00
  1.91218355E+00  2.09404693E+00  2.04098890E+00  2.04587583E+00  2.22110696E+00
  2.14570870E+00  2.02510640E+00  2.10783504E+00  2.09474507E+00  2.10033012E+00
  1.95599133E+00  1.95756213E+00  1.95895839E+00  1.91637234E+00  1.90747116E+00
  1.93801443E+00  2.09230160E+00  2.07624457E+00  2.02161574E+00  2.14535964E+00
  2.19073822E+00  2.06769245E+00  1.89298492E+00  1.87762601E+00  1.85703112E+00
%FLAG DIHEDRAL_FORCE_CONSTANT                                                   
%FORMAT(5E16.8)                                                                 
  1.70000000E+00  4.80000000E+00  4.00000000E+00  4.75000000E+00  0.00000000E+00
  1.05000000E+00  1.55555556E-01  3.62500000E+00  3.00000000E-01  1.10000000E+00
  1.05000000E+01
%FLAG DIHEDRAL_PERIODICITY                                                      
%FORMAT(5E16.8)                                                                 
  2.00000000E+00  2.00000000E+00  2.00000000E+00  2.00000000E+00  2.00000000E+00
  2.00000000E+00  3.00000000E+00  2.00000000E+00  3.00000000E+00  2.00000000E+00
  2.00000000E+00
%FLAG DIHEDRAL_PHASE                                                            
%FORMAT(5E16.8)                                                                 
  3.14159400E+00  3.14159400E+00  3.14159400E+00  3.14159400E+00  0.00000000E+00
  3.14159400E+00  0.00000000E+00  3.14159400E+00  0.00000000E+00  3.14159400E+00
  3.14159400E+00
%FLAG SCEE_SCALE_FACTOR                                                         
%FORMAT(5E16.8)                                                                 
  1.20000000E+00  1.20000000E+00  1.20000000E+00  1.20000000E+00  1.20000000E+00
  1.20000000E+00  1.20000000E+00  1.20000000E+00  1.20000000E+00  0.00000000E+00
  0.00000000E+00
%FLAG SCNB_SCALE_FACTOR                                                         
%FORMAT(5E16.8)                                                                 
  2.00000000E+00  2.00000000E+00  2.00000000E+00  2.00000000E+00  2.00000000E+00
  2.00000000E+00  2.00000000E+00  2.00000000E+00  2.00000000E+00  0.00000000E+00
  0.00000000E+00
%FLAG SOLTY                                                                     
%FORMAT(5E16.8)                                                                 
  0.00000000E+00  0.00000000E+00  0.00000000E+00  0.00000000E+00  0.00000000E+00
  0.00000000E+00  0.00000000E+00  0.00000000E+00  0.00000000E+00  0.00000000E+00
  0.00000000E+00  0.00000000E+00  0.00000000E+00  0.00000000E+00  0.00000000E+00
  0.00000000E+00  0.00000000E+00
%FLAG LENNARD_JONES_ACOEF                                                       
%FORMAT(5E16.8)                                                                 
  1.04308023E+06  9.95480466E+05  9.44293233E+05  9.24822270E+05  8.82619071E+05
  8.19971662E+05  4.68919175E+05  4.42327516E+05  4.15756030E+05  2.06132451E+05
  6.78771368E+04  6.20665997E+04  6.01816484E+04  2.81053481E+04  3.25969625E+03
  7.18621074E+04  6.58473870E+04  6.37148278E+04  2.98748723E+04  3.50301067E+03
  3.76169105E+03  8.59947003E+04  7.91627154E+04  7.62451550E+04  3.60700839E+04
  4.33325458E+03  4.64559155E+03  5.71629601E+03  9.71708117E+04  8.96776989E+04
  8.61541883E+04  4.09569055E+04  4.98586848E+03  5.34045360E+03  6.55825601E+03
  7.51607703E+03  2.56678134E+03  2.12601181E+03  2.27577561E+03  8.77867742E+02
  5.94667300E+01  6.63368273E+01  8.90987508E+01  1.07193646E+02  1.39982777E-01
  5.98885646E+04  5.46147253E+04  5.30987710E+04  2.46694355E+04  2.82099197E+03
  3.03448006E+03  3.76169105E+03  4.33325458E+03  4.90239937E+01  2.43828624E+03
%FLAG LENNARD_JONES_BCOEF                                                       
%FORMAT(5E16.8)                                                                 
  6.75612247E+02  7.36907417E+02  8.01323529E+02  5.99015525E+02  6.53361429E+02
  5.31102864E+02  3.91440521E+02  4.24469669E+02  3.47061425E+02  2.24268406E+02
  1.06076943E+02  1.13252061E+02  9.40505980E+01  5.89836782E+01  1.43076527E+01
  1.07908863E+02  1.15327881E+02  9.56748258E+01  6.01226754E+01  1.46638650E+01
  1.50233639E+01  1.18043746E+02  1.26451907E+02  1.04660679E+02  6.60630842E+01
  1.63092814E+01  1.66953734E+01  1.85196588E+01  1.26919150E+02  1.36131731E+02
  1.12529845E+02  7.12034334E+01  1.76949863E+01  1.81057616E+01  2.00642027E+01
  2.17257828E+01  2.06278363E+01  2.09604198E+01  1.82891803E+01  1.04244203E+01
  1.93248820E+00  2.01792524E+00  2.33864085E+00  2.59456373E+00  9.37598976E-02
  9.85097219E+01  1.05031585E+02  8.73413012E+01  5.46342361E+01  1.31591746E+01
  1.34932874E+01  1.50233639E+01  1.63092814E+01  1.73473071E+00  1.20953369E+01
%FLAG BONDS_INC_HYDROGEN                                                        
%FORMAT(10I8)                                                                   
       0     111       2       0     114       2       0     117       2       6
     120       6      15     123       8      27     126       2      27     129
       2      30     132       2      30     135       2      42     138      17
      51     141      20      51     144      20      51     147      20      54
     150      21      54     153      21      60     156      22      63     159
      22      72     162      22      75     165      22      78     168      17
      84     171       2      84     174       2      87     177       2      87
     180       2      93     183      26     102     186       6     105     189
      27
%FLAG BONDS_WITHOUT_HYDROGEN                                                    
%FORMAT(10I8)                                                                   
       0       3       1       3       6       3       3     108       4       6
       9       5       9      12       7       9     105       7      12      15
       7      12     102       5      15      18       5      18      21       9
      18      99       3      21      24      10      21      90      11      24
      27      12      24      87      12      27      30      13      30      33
      12      33      36      14      33      84      12      36      39      15
      36      81      15      39      42      15      42      45      16      45
      48      18      45      78      16      48      51      13      48      54
      19      48      57      18      57      60      16      57      75      16
      60      63      16      63      66      16      66      69      23      66
      72      16      72      75      16      78      81      15      84      87
      13      90      93      24      93      96      25      96      99       4
      99     102       3     105     108      25
%FLAG ANGLES_INC_HYDROGEN                                                       
%FORMAT(10I8)                                                                   
       3       0     111       3       3       0     114       3       3       0
     117       3       3       6     120       5       9       6     120       9
       9     105     189      12      12      15     123      13      12     102
     186       9      18      15     123      15      24      27     126      24
      24      27     129      24      24      87     177      24      24      87
     180      24      27      30     132      26      27      30     135      26
      30      27     126      26      30      27     129      26      33      30
     132      24      33      30     135      24      33      84     171      24
      33      84     174      24      39      42     138      32      45      42
     138      35      45      78     168      35      48      51     141      39
      48      51     144      39      48      51     147      39      48      54
     150      40      48      54     153      40      57      60     156      42
      57      75     165      42      60      63     159      42      63      60
     156      42      66      63     159      42      66      72     162      42
      72      75     165      42      75      72     162      42      81      78
     168      32      84      87     177      26      84      87     180      26
      87      84     171      26      87      84     174      26      90      93
     183      45      96      93     183      46      99     102     186       5
     108     105     189      47     111       0     114      48     111       0
     117      48     114       0     117      48     126      27     129      48
     132      30     135      48     141      51     144      49     141      51
     147      49     144      51     147      49     150      54     153      50
     171      84     174      48     177      87     180      48
%FLAG ANGLES_WITHOUT_HYDROGEN                                                   
%FORMAT(10I8)                                                                   
       0       3       6       1       0       3     108       2       3       6
       9       4       3     108     105       6       6       3     108       7
       6       9      12       8       6       9     105       8       9      12
      15      10       9      12     102       8       9     105     108      11
      12       9     105      10      12      15      18       8      12     102
      99       4      15      12     102       8      15      18      21      14
      15      18      99       4      18      21      24      16      18      21
      90      17      18      99      96       7      18      99     102      18
      21      18      99      19      21      24      27      20      21      24
      87      20      21      90      93      21      24      21      90      22
      24      27      30      23      24      87      84      23      27      24
      87      25      27      30      33      23      30      33      36      27
      30      33      84      25      33      36      39      28      33      36
      81      28      33      84      87      23      36      33      84      27
      36      39      42      29      36      81      78      29      39      36
      81      30      39      42      45      31      42      45      48      33
      42      45      78      34      45      48      51      36      45      48
      54      37      45      48      57      38      45      78      81      31
      48      45      78      33      48      57      60      33      48      57
      75      33      51      48      54      41      51      48      57      36
      54      48      57      37      57      60      63      34      57      75
      72      34      60      57      75      34      60      63      66      34
      63      66      69      43      63      66      72      34      66      72
      75      34      69      66      72      43      90      93      96      44
      93      96      99       6      96      99     102       7
%FLAG DIHEDRALS_INC_HYDROGEN                                                    
%FORMAT(10I8)                                                                   
       0       3       6     120       1       3     108     105     189       4
     111       0       3       6       5     114       0       3       6       5
     117       0       3       6       5       6       9     105     189       3
       9      12      15     123       3       9      12     102     186       3
      12       9       6     120       3      12       9     105     189       3
      15      12     102     186       3      18      99     102     186       1
      21      18      15     123       3      21      24      27     126       5
      21      24      27     129       5      21      24      87     177       5
      21      24      87     180       5      21      90      93     183       4
      24      27      30     132       7      24      27      30     135       7
      24      87      84     171       7      24      87      84     174       7
      27      24      87     177       5      27      24      87     180       5
      30      33      84     171       5      30      33      84     174       5
      33      30      27     126       7      33      30      27     129       7
      33      84      87     177       7      33      84      87     180       7
      36      33      30     132       5      36      33      30     135       5
      36      33      84     171       5      36      33      84     174       5
      36      39      42     138       2      36      81      78     168       2
      42      45      78     168       8      45      48      51     141       7
      45      48      51     144       7      45      48      51     147       7
      45      48      54     150       9      45      48      54     153       9
      48      45      42     138       8      48      45      78     168       8
      48      57      60     156       8      48      57      75     165       8
      51      48      54     150       9      51      48      54     153       9
      54      48      51     141       7      54      48      51     144       7
      54      48      51     147       7      57      48      51     141       7
      57      48      51     144       7      57      48      51     147       7
      57      48      54     150       9      57      48      54     153       9
      57      60      63     159       8      57      75      72     162       8
      60      57      75     165       8      63      66      72     162       8
      66      63      60     156       8      66      72      75     165       8
      69      66      63     159       8      69      66      72     162       8
      72      66      63     159       8      75      57      60     156       8
      78      45      42     138       8      84      33      30     132       5
      84      33      30     135       5      87      24      27     126       5
      87      24      27     129       5      96      99     102     186       1
      99      96      93     183       4      99      18      15     123       3
     102      12      15     123       3     105       9       6     120       3
     111       0       3     108       5     114       0       3     108       5
     117       0       3     108       5     108       3       6     120       1
     126      27      30     132       7     126      27      30     135       7
     129      27      30     132       7     129      27      30     135       7
     156      60      63     159       8     162      72      75     165       8
     171      84      87     177       7     171      84      87     180       7
     174      84      87     177       7     174      84      87     180       7
       9     120      -6      -3      10      18      12     -15    -123      10
      45     138     -42     -39      10      57      63     -60    -156      10
      60      66     -63    -159      10      66      75     -72    -162      10
      57      72     -75    -165      10      45     168     -78     -81      10
     183      96     -93     -90      10      12     186    -102     -99      10
       9     189    -105    -108      10
%FLAG DIHEDRALS_WITHOUT_HYDROGEN                                                
%FORMAT(10I8)                                                                   
       0       3       6       9       1       0       3     108     105       2
       3       6       9      12       3       3       6      -9     105       3
       3     108    -105       9       4       6       3    -108     105       2
       6       9      12      15       3       6       9      12     102       3
       6       9    -105     108       3       9       6      -3     108       1
       9      12      15      18       3       9      12     102      99       3
      12       9     105     108       3      12      15      18      21       3
      12      15     -18      99       3      12     102      99      96       1
      12     102     -99      18       1      15      12       9     105       3
      15      12    -102      99       3      15      18      21      24       3
      15      18      21      90       3      15      18      99      96       1
      15      18     -99     102       1      18      15     -12     102       3
      18      21      24      27       6      18      21      24      87       6
      18      21      90      93       4      18      99     -96      93       2
      21      18      99      96       1      21      18      99     102       1
      21      24      27      30       5      21      24      87      84       5
      21      90     -93      96       4      24      21      18      99       3
      24      21      90      93       4      24      27      30      33       7
      24      87     -84      33       7      27      24      21      90       6
      27      24      87      84       5      27      30      33      36       5
      27      30     -33      84       5      30      27      24      87       5
      30      33      36      39       6      30      33      36      81       6
      30      33     -84      87       5      33      36      39      42       2
      33      36      81      78       2      36      33      84      87       5
      36      39      42      45       2      36      81     -78      45       2
      39      36      33      84       6      39      36      81      78       2
      39      42      45      48       8      39      42     -45      78       8
      42      39      36      81       2      42      45      48      51       5
      42      45      48      54       5      42      45      48      57       5
      42      45     -78      81       8      45      48      57      60       5
      45      48      57      75       5      48      45      78      81       8
      48      57      60      63       8      48      57      75      72       8
      51      48      45      78       5      51      48      57      60       5
      51      48      57      75       5      54      48      45      78       5
      54      48      57      60       5      54      48      57      75       5
      57      48      45      78       5      57      60      63      66       8
      57      75     -72      66       8      60      57      75      72       8
      60      63      66      69       8      60      63     -66      72       8
      63      60      57      75       8      63      66     -72      75       8
      69      66      72      75       8      81      36      33      84       6
      87      24      21      90       6      90      21      18      99       3
      90      93     -96      99       4      93      96      99     102       2
     102      12       9     105       3       0       6      -3    -108      10
       6      12      -9    -105      10     102       9     -12     -15      10
      21      15     -18     -99      10      18      90     -21     -24      10
      27      87     -24     -21      10      30      84     -33     -36      10
      39      81     -36     -33      11      42      78     -45     -48      10
      48      60     -57     -75      10      63      72     -66     -69      10
      18     102     -99     -96      10
%FLAG EXCLUDED_ATOMS_LIST                                                       
%FORMAT(10I8)                                                                   
       2       3       4      36      37      38      39      40      41       3
       4       5      36      37      38      39      40      41      64       4
       5       6      35      36      37      38      39      40      41      64
       5       6       7      34      35      36      37      41      42      63
      64       6       7       8      33      34      35      36      37      41
      42      63      64       7       8       9      31      33      34      35
      36      42      63       8       9      10      30      31      32      33
      34      35      42      63       9      10      11      29      30      31
      32      33      34      35      42      43      44      60      61      62
      10      11      12      29      30      31      32      34      43      44
      45      46      58      59      60      61      11      12      13      29
      30      31      43      44      45      46      60      61      12      13
      14      28      29      30      43      44      45      46      58      59
      13      14      15      27      28      29      30      43      44      45
      46      58      59      60      61      14      15      16      27      28
      29      30      45      46      47      57      58      59      15      16
      17      27      28      29      47      16      17      18      19      20
      27      28      47      57      17      18      19      20      21      26
      27      28      47      48      49      50      51      52      57      18
      19      20      21      22      25      26      27      28      47      48
      49      50      51      52      53      56      57      19      20      21
      26      27      48      49      50      51      52      20      21      26
      27      48      49      50      51      52      21      22      23      25
      26      27      48      49      50      51      52      53      54      55
      56      22      23      24      25      26      53      54      56      23
      24      25      26      53      54      55      24      25      26      53
      54      55      56      25      26      54      55      26      54      55
      56      53      55      56      28      47      57      29      57      30
      45      46      58      59      60      61      31      43      44      58
      59      60      61      32      33      34      62      33      34      35
      62      34      35      62      63      35      42      62      63      36
      42      63      37      41      64      38      39      40      41      64
      39      40      40       0       0       0      44      45      46      45
      46      46       0       0      49      50      50       0      52       0
      54       0      56       0       0      59      60      61      60      61
      61       0       0       0       0
%FLAG HBOND_ACOEF                                                               
%FORMAT(5E16.8)                                                                 

%FLAG HBOND_BCOEF                                                               
%FORMAT(5E16.8)                                                                 

%FLAG HBCUT                                                                     
%FORMAT(5E16.8)                                                                 

%FLAG AMBER_ATOM_TYPE                                                           
%FORMAT(20a4)                                                                   
c3  na  cc  cd  cd  cd  cc  cc  nh  c3  c3  nh  ca  nb  ca  ca  c3  c3  n3  ca  
ca  ca  ca  f   ca  ca  ca  nb  c3  c3  nd  cd  nc  na  cc  cd  nc  h1  h1  h1  
h4  ha  h1  h1  h1  h1  h4  hc  hc  hc  hn  hn  ha  ha  ha  ha  h4  h1  h1  h1  
h1  h5  h4  h4  
%FLAG TREE_CHAIN_CLASSIFICATION                                                 
%FORMAT(20a4)                                                                   
BLA BLA BLA BLA BLA BLA BLA BLA BLA BLA BLA BLA BLA BLA BLA BLA BLA BLA BLA BLA 
BLA BLA BLA BLA BLA BLA BLA BLA BLA BLA BLA BLA BLA BLA BLA BLA BLA BLA BLA BLA 
BLA BLA BLA BLA BLA BLA BLA BLA BLA BLA BLA BLA BLA BLA BLA BLA BLA BLA BLA BLA 
BLA BLA BLA BLA 
%FLAG JOIN_ARRAY                                                                
%FORMAT(10I8)                                                                   
       0       0       0       0       0       0       0       0       0       0
       0       0       0       0       0       0       0       0       0       0
       0       0       0       0       0       0       0       0       0       0
       0       0       0       0       0       0       0       0       0       0
       0       0       0       0       0       0       0       0       0       0
       0       0       0       0       0       0       0       0       0       0
       0       0       0       0
%FLAG IROTAT                                                                    
%FORMAT(10I8)                                                                   
       0       0       0       0       0       0       0       0       0       0
       0       0       0       0       0       0       0       0       0       0
       0       0       0       0       0       0       0       0       0       0
       0       0       0       0       0       0       0       0       0       0
       0       0       0       0       0       0       0       0       0       0
       0       0       0       0       0       0       0       0       0       0
       0       0       0       0
%FLAG RADIUS_SET                                                                
%FORMAT(1a80)                                                                   
modified Bondi radii (mbondi)                                                   
%FLAG RADII                                                                     
%FORMAT(5E16.8)                                                                 
  1.70000000E+00  1.55000000E+00  1.70000000E+00  1.70000000E+00  1.70000000E+00
  1.70000000E+00  1.70000000E+00  1.70000000E+00  1.55000000E+00  1.70000000E+00
  1.70000000E+00  1.55000000E+00  1.70000000E+00  1.55000000E+00  1.70000000E+00
  1.70000000E+00  1.70000000E+00  1.70000000E+00  1.55000000E+00  1.70000000E+00
  1.70000000E+00  1.70000000E+00  1.70000000E+00  1.50000000E+00  1.70000000E+00
  1.70000000E+00  1.70000000E+00  1.55000000E+00  1.70000000E+00  1.70000000E+00
  1.55000000E+00  1.70000000E+00  1.55000000E+00  1.55000000E+00  1.70000000E+00
  1.70000000E+00  1.55000000E+00  1.30000000E+00  1.30000000E+00  1.30000000E+00
  1.30000000E+00  1.30000000E+00  1.30000000E+00  1.30000000E+00  1.30000000E+00
  1.30000000E+00  1.30000000E+00  1.30000000E+00  1.30000000E+00  1.30000000E+00
  1.30000000E+00  1.30000000E+00  1.30000000E+00  1.30000000E+00  1.30000000E+00
  1.30000000E+00  1.30000000E+00  1.30000000E+00  1.30000000E+00  1.30000000E+00
  1.30000000E+00  1.30000000E+00  1.30000000E+00  1.30000000E+00
%FLAG SCREEN                                                                    
%FORMAT(5E16.8)                                                                 
  7.20000000E-01  7.90000000E-01  7.20000000E-01  7.20000000E-01  7.20000000E-01
  7.20000000E-01  7.20000000E-01  7.20000000E-01  7.90000000E-01  7.20000000E-01
  7.20000000E-01  7.90000000E-01  7.20000000E-01  7.90000000E-01  7.20000000E-01
  7.20000000E-01  7.20000000E-01  7.20000000E-01  7.90000000E-01  7.20000000E-01
  7.20000000E-01  7.20000000E-01  7.20000000E-01  8.80000000E-01  7.20000000E-01
  7.20000000E-01  7.20000000E-01  7.90000000E-01  7.20000000E-01  7.20000000E-01
  7.90000000E-01  7.20000000E-01  7.90000000E-01  7.90000000E-01  7.20000000E-01
  7.20000000E-01  7.90000000E-01  8.50000000E-01  8.50000000E-01  8.50000000E-01
  8.50000000E-01  8.50000000E-01  8.50000000E-01  8.50000000E-01  8.50000000E-01
  8.50000000E-01  8.50000000E-01  8.50000000E-01  8.50000000E-01  8.50000000E-01
  8.50000000E-01  8.50000000E-01  8.50000000E-01  8.50000000E-01  8.50000000E-01
  8.50000000E-01  8.50000000E-01  8.50000000E-01  8.50000000E-01  8.50000000E-01
  8.50000000E-01  8.50000000E-01  8.50000000E-01  8.50000000E-01
%FLAG IPOL                                                                      
%FORMAT(1I8)                                                                    
       0
