*****
    64
  16.0330000  13.2630000  -5.4060000  14.8380000  12.7780000  -6.0520000
  14.3910000  11.4880000  -6.0920000  13.2200000  11.5170000  -6.8130000
  12.3280000  10.4200000  -7.1590000  12.6290000   9.0410000  -7.0060000
  11.5360000   8.3250000  -7.4600000  11.2160000   6.9250000  -7.5640000
  12.0840000   5.8760000  -7.2730000  13.5400000   5.9690000  -7.4910000
  14.1700000   4.6410000  -7.9740000  13.8570000   3.5460000  -7.0580000
  14.5090000   2.3410000  -7.2310000  13.7870000   1.2500000  -7.5340000
  14.4470000   0.0820000  -7.7180000  15.8160000  -0.0650000  -7.6360000
  16.5420000  -1.3970000  -7.7960000  17.9540000  -1.1930000  -7.1930000
  15.9260000  -2.4620000  -6.9760000  16.5540000  -1.8930000  -9.2600000
  16.8530000  -3.2480000  -9.5390000  16.8900000  -3.7290000 -10.8500000
  16.6280000  -2.8650000 -11.9020000  16.6640000  -3.3230000 -13.1600000
  16.3300000  -1.5310000 -11.6660000  16.2960000  -1.0450000 -10.3550000
  16.4620000   1.1090000  -7.3080000  15.8450000   2.2960000  -7.1120000
  12.5360000   3.5520000  -6.4240000  11.5560000   4.5020000  -7.1470000
  10.0050000   6.6350000  -7.9550000   9.1270000   7.6350000  -8.2840000
   9.3470000   8.9110000  -8.2530000  10.5770000   9.2270000  -7.8260000
  11.0550000  10.5000000  -7.6750000  13.0510000  12.8720000  -7.1630000
  14.0400000  13.6450000  -6.7010000  15.9060000  13.2120000  -4.3140000
  16.8900000  12.6410000  -5.7050000  16.2140000  14.3060000  -5.7050000
  14.8690000  10.6070000  -5.6400000  13.5610000   8.6190000  -6.6010000
  13.7310000   6.7430000  -8.2490000  14.0000000   6.2160000  -6.5230000
  13.7760000   4.3980000  -8.9720000  15.2620000   4.7650000  -8.0090000
  13.8500000  -0.8120000  -7.9490000  17.8890000  -1.2020000  -6.0950000
  18.6160000  -2.0050000  -7.5280000  18.3600000  -0.2270000  -7.5280000
  14.9140000  -2.4290000  -7.1070000  16.0760000  -2.2550000  -5.9900000
  17.0610000  -3.9360000  -8.7070000  17.1250000  -4.7850000 -11.0460000
  16.1210000  -0.8560000 -12.5090000  16.0640000   0.0150000 -10.1760000
  17.5560000   1.0770000  -7.1980000  12.1250000   2.5320000  -6.4480000
  12.6550000   3.9070000  -5.3900000  11.3610000   4.1060000  -8.1550000
  10.6370000   4.5530000  -6.5450000   8.1250000   7.3190000  -8.6100000
  10.5160000  11.4260000  -7.9230000  12.2010000  13.2510000  -7.7500000
