default_name
  4685
  -2.0480000 -33.4790000  -1.4410000  -2.8498890 -33.7833422  -1.9743393
  -2.2862116 -33.4939228  -0.4596067  -1.2320032 -33.9748615  -1.7701962
  -1.8000000 -32.0770000  -1.7560000  -1.8610594 -31.4969674  -0.8351672
  -0.4020000 -31.9010000  -2.3530000   0.3439647 -32.2633286  -1.6456431
  -0.3283476 -32.4687271  -3.2805566  -0.1154143 -30.4370036  -2.6547771
  -0.9579431 -29.5745128  -2.4166678   1.0792812 -30.1579266  -3.1811254
   1.3202744 -29.2019087  -3.4003329   1.7366721 -30.9040853  -3.3577185
  -2.8510000 -31.5290000  -2.7170000  -2.5180000 -30.9000000  -3.7190000
  -4.1270000 -31.7680000  -2.4100000  -4.3685064 -32.3629651  -1.6303908
  -5.2060000 -31.2290000  -3.2280000  -4.9388563 -31.2863621  -4.2831981
  -6.4840000 -32.0330000  -3.0040000  -6.5938230 -32.2397234  -1.9394327
  -7.3328517 -31.4422522  -3.3483368  -6.4740000 -33.3470000  -3.7530000
  -6.1800000 -33.3880000  -4.9460000  -6.7900000 -34.4300000  -3.0550000
  -6.7987358 -35.3333717  -3.5066006  -7.0203867 -34.3461567  -2.0752076
  -5.4730000 -29.7530000  -2.9550000  -6.1990000 -29.1160000  -3.7310000
  -4.9290000 -29.2120000  -1.8660000  -4.4499254 -29.8304675  -1.2271848
  -4.9850000 -27.7930000  -1.5420000  -5.5645348 -27.2745189  -2.3058167
  -5.6390000 -27.5460000  -0.1800000  -5.0615320 -28.0755076   0.5777939
  -5.5560341 -26.4718341  -0.0145181  -7.0930000 -27.9600000  -0.0870000
  -7.4380000 -29.2800000   0.1690000  -6.6406167 -30.0123043   0.2955294
  -8.7670000 -29.6760000   0.2650000  -9.0232393 -30.7187814   0.4522169
  -9.7700000 -28.7300000   0.1280000 -11.0900000 -29.1050000   0.2260000
 -11.2019277 -30.0442080   0.3901954  -9.4490000 -27.4080000  -0.1150000
 -10.2364470 -26.6631303  -0.2298780  -8.1120000 -27.0290000  -0.2130000
  -7.8530448 -25.9853791  -0.3915993  -3.5600000 -27.2610000  -1.5160000
  -2.6700000 -27.8890000  -0.9340000  -3.3360000 -26.1080000  -2.1390000
  -4.0661655 -25.6267014  -2.6442815  -1.9940000 -25.5460000  -2.1640000
  -1.4582976 -25.8308635  -1.2584753  -1.2180000 -26.0630000  -3.3730000
  -0.1652006 -25.8010645  -3.2676322  -1.3180709 -27.1467842  -3.4321408
  -1.7310000 -25.4800000  -4.5470000  -1.2421325 -25.8060077  -5.3061623
  -2.0720000 -24.0280000  -2.1650000  -3.1100000 -23.4430000  -2.4700000
  -0.9590000 -23.3970000  -1.8000000  -0.1610431 -23.9106551  -1.4542795
  -0.8650000 -21.9470000  -1.8780000  -1.8136937 -21.5080777  -1.5690878
   0.2410000 -21.4060000  -0.9730000   1.1377699 -21.9473843  -1.2743402
   0.3746635 -20.3428557  -1.1728957   0.0000000 -21.6140000   0.5040000
  -0.8820000 -20.8040000   1.2030000  -1.4108185 -20.0152850   0.6678561
  -1.0970000 -20.9850000   2.5650000  -1.8079691 -20.3556459   3.1002926
  -0.3990000 -21.9690000   3.2410000  -0.6040000 -22.1510000   4.5940000
  -1.2493739 -21.5422850   4.9608218   0.5000000 -22.7730000   2.5670000
   1.0504279 -23.5491591   3.0987017   0.7000000 -22.5890000   1.2100000
   1.4158638 -23.2130838   0.6750621  -0.5720000 -21.5540000  -3.3150000
   0.3220000 -22.1230000  -3.9460000  -1.3140000 -20.5800000  -3.8250000
  -2.0570255 -20.1648550  -3.2812473  -1.1160000 -20.1150000  -5.1970000
  -0.8705232 -20.9483545  -5.8553012  -2.3710000 -19.4040000  -5.7190000
  -2.7061014 -18.6813780  -4.9749403  -2.0640000 -18.6770000  -7.0360000
  -1.7292577 -19.3990858  -7.7807418  -2.9640531 -18.1772310  -7.3941006
  -1.2804263 -17.9378227  -6.8694815  -3.4960000 -20.4290000  -5.9060000
  -3.1507695 -21.1408248  -6.6558147  -3.6180149 -20.9391122  -4.9504910
  -4.8210000 -19.8460000  -6.3380000  -4.6998728 -19.3360887  -7.2937293
  -5.5533990 -20.6462830  -6.4440093  -5.1671171 -19.1343739  -5.5884061
   0.0940000 -19.1890000  -5.2120000   0.0830000 -18.1310000  -4.5740000
   1.1410000 -19.5950000  -5.9120000   1.0992808 -20.4784146  -6.3997884
   2.3790000 -18.8280000  -5.9760000   2.5915893 -18.3777709  -5.0063615
   3.5440000 -19.7500000  -6.3540000   3.6214434 -20.4837913  -5.5517207
   3.3033780 -20.2576887  -7.2880521   4.8730000 -19.0170000  -6.5020000
   4.8970000 -17.7710000  -6.5310000   5.9020000 -19.7110000  -6.6240000
   2.1660000 -17.7240000  -7.0060000   2.0240000 -18.0220000  -8.1970000
   2.1020000 -16.4550000  -6.5950000   2.3200000 -15.9420000  -5.2320000
   3.2369178 -16.3713584  -4.8282509   1.4777447 -16.2265823  -4.6013512
   2.4140000 -14.4710000  -5.4220000   3.4686378 -14.1962940  -5.4026390
   1.8986070 -13.9905536  -4.5903494   1.7810000 -14.1080000  -6.7210000
   2.3704338 -13.3365517  -7.2165141   0.7592428 -13.7532097  -6.5859600
   1.7830000 -15.3910000  -7.5670000   0.7932223 -15.6008795  -7.9724491
   2.7840000 -15.2980000  -8.7020000   2.4140000 -14.8950000  -9.8170000
   4.0390000 -15.6810000  -8.4640000   4.3442832 -15.9451615  -7.5381922
   5.0280000 -15.6530000  -9.5370000   4.9167826 -14.7431817 -10.1268817
   6.4470000 -15.6880000  -8.9520000   7.1635816 -15.4484860  -9.7376488
   6.5740000 -14.6800000  -7.8290000   5.8579988 -14.9191518  -7.0427123
   7.5846092 -14.7140732  -7.4220513   6.3709306 -13.6802136  -8.2127846
   6.7340000 -16.9940000  -8.4430000   7.6223269 -17.0075812  -8.0792814
   4.8590000 -16.7870000 -10.5460000   5.4820000 -16.7400000 -11.6170000
   4.0330000 -17.7970000 -10.2500000   3.6160220 -17.8633574  -9.3324896
   3.7510000 -18.8520000 -11.2150000   4.6011920 -18.9785757 -11.8852621
   3.4950000 -20.1800000 -10.4920000   2.8418551 -19.9623601  -9.6469356
   2.9744493 -20.8305932 -11.1947485   4.7560000 -20.8770000  -9.9930000
   5.3938626 -21.0725412 -10.8549720   5.2785120 -20.2215603  -9.2962346
   4.4660000 -22.1930000  -9.2960000   3.3500000 -22.4370000  -8.8370000
   5.4820000 -23.0430000  -9.1980000   5.3480546 -23.9351290  -8.7438350
   6.3838123 -22.7932811  -9.5781005   2.5570000 -18.5240000 -12.1050000
   2.3340000 -19.2070000 -13.1160000   1.7960000 -17.4920000 -11.7570000
   2.0077567 -16.9503176 -10.9312648   0.6260000 -17.1310000 -12.5350000
   0.0599546 -18.0287009 -12.7836461  -0.2780000 -16.1870000 -11.7480000
   0.3329336 -15.3079565 -11.5427151  -1.1120545 -15.9069518 -12.3914486
  -0.8160000 -16.7510000 -10.4340000   0.0240806 -17.0718030  -9.8180041
  -1.6190000 -15.7010000  -9.6870000  -2.4595802 -15.3800220 -10.3022210
  -1.9925709 -16.1239889  -8.7544626  -0.9821384 -14.8441256  -9.4672863
  -1.6770000 -17.9630000 -10.7330000  -1.0772833 -18.7193923 -11.2392707
  -2.0654736 -18.3723396  -9.8004601  -2.5079900 -17.6696650 -11.3744898
   1.0390000 -16.4610000 -13.8390000   2.0730000 -15.7870000 -13.9060000
   0.2310000 -16.6150000 -14.8760000  -1.0130000 -17.4020000 -14.9350000
  -1.8464202 -16.8118040 -14.5539754  -0.9090720 -18.3093869 -14.3400656
  -1.1340000 -17.6890000 -16.3930000  -2.1764442 -17.8659937 -16.6577308
  -0.5393163 -18.5638111 -16.6559794  -0.5930000 -16.4410000 -17.0720000
  -1.3873539 -15.6950451 -17.0975388  -0.2109973 -16.5988953 -18.0805845
   0.5390000 -15.9660000 -16.1520000   1.5232362 -16.2978039 -16.4825807
   0.5350000 -14.4510000 -16.0150000  -0.2170000 -13.8760000 -15.2280000
   1.3980000 -13.8020000 -16.7850000   2.1198602 -14.2906930 -17.2950944
   1.3380000 -12.3530000 -16.8930000   1.4242139 -11.9004619 -15.9051358
   2.4910000 -11.8450000 -17.7670000   3.3993980 -11.9453328 -17.1729918
   2.5510621 -12.5010061 -18.6354172   2.3460000 -10.4130000 -18.2270000
   2.3570000  -9.3680000 -17.3120000   2.4678517  -9.6018738 -16.2531731
   2.2310000  -8.0530000 -17.7200000   2.2473927  -7.2407880 -16.9932643
   2.0730000  -7.7720000 -19.0750000   1.9440000  -6.4650000 -19.4840000
   1.9771553  -5.8393369 -18.7566445   2.0550000  -8.7900000 -19.9940000
   1.9350863  -8.5691665 -21.0546384   2.1900000 -10.1040000 -19.5700000
   2.1745294 -10.9156892 -20.2973386  -0.0030000 -11.9520000 -17.5000000
  -0.4200000 -12.4970000 -18.5270000  -0.6850000 -11.0130000 -16.8540000
  -0.3234547 -10.6434976 -15.9863293  -1.9780000 -10.5380000 -17.3200000
  -2.4849778 -11.3230218 -17.8810824  -2.8520000 -10.1480000 -16.1260000
  -2.8359632 -10.9575901 -15.3963385  -2.3980156  -9.2579218 -15.6903866
  -4.2930000  -9.8440000 -16.5150000  -4.5500000  -9.4390000 -17.6610000
  -5.1830000 -10.0470000 -15.6580000  -1.7620000  -9.3690000 -18.2740000
  -1.2820000  -8.3090000 -17.8660000  -2.1190000  -9.5640000 -19.5450000
  -2.4939854 -10.4520255 -19.8464898  -1.8830000  -8.5340000 -20.5530000
  -0.8643338  -8.1532214 -20.4793387  -2.0780000  -9.1430000 -21.9430000
  -2.9048561  -9.8525251 -21.9743439  -2.2623744  -8.3392766 -22.6558358
  -0.8660000  -9.8760000 -22.4280000  -0.6340000 -11.2040000 -22.1350000
   0.5160000 -11.5750000 -22.6690000   0.8762631 -12.5972690 -22.5537802
   1.0430000 -10.5350000 -23.2910000   1.9207530 -10.5225426 -23.7904941
   0.2000000  -9.4580000 -23.1510000   0.4647177  -8.4975854 -23.5933003
  -2.7480000  -7.2940000 -20.3680000  -2.5780000  -6.3370000 -21.1340000
  -3.6390000  -7.2750000 -19.3670000  -3.8775167  -8.1206088 -18.8688485
  -4.3370000  -6.0390000 -19.0100000  -4.9122468  -5.6826527 -19.8645214
  -5.2980000  -6.2760000 -17.8360000  -6.0018453  -5.4437189 -17.8329558
  -5.8320645  -7.2020312 -18.0489353  -4.6270000  -6.3790000 -16.4700000
  -4.0092125  -7.2769902 -16.4627092  -3.9937906  -5.5018974 -16.3364374
  -5.6410000  -6.4510000 -15.3340000  -6.0130918  -5.4473081 -15.1284540
  -6.4696655  -7.0895365 -15.6400787  -4.9980000  -7.0220000 -14.0750000
  -4.7507715  -8.0654437 -14.2704583  -4.0825994  -6.4618084 -13.8844051
  -5.8860000  -6.9380000 -12.8870000  -6.7341053  -7.4573809 -13.0632399
  -5.4127246  -7.3283451 -12.0846652  -6.1148608  -5.9711683 -12.7054559
  -3.3530000  -4.9300000 -18.6650000  -3.6710000  -3.7450000 -18.8210000
  -2.1550000  -5.2910000 -18.2100000  -1.9432392  -6.2640766 -18.0415402
  -1.1410000  -4.2970000 -17.8840000  -1.6026518  -3.4338646 -17.4044438
  -0.1110000  -4.9000000 -16.9210000   0.3270033  -5.8095585 -17.3320422
   0.6789748  -4.1775948 -16.7156453  -0.7030000  -5.2690000 -15.6060000
  -0.8470000  -6.5230000 -15.0940000  -0.4946158  -7.3494635 -15.7111574
  -1.4330000  -6.4640000 -13.8530000  -1.6594712  -7.2555964 -13.2680338
  -1.6700000  -5.1490000 -13.5410000  -2.2450000  -4.5870000 -12.4050000
  -2.5763950  -5.2485944 -11.6046446  -2.3580000  -3.2230000 -12.3670000
  -2.8032163  -2.7497309 -11.4918436  -1.9180000  -2.4200000 -13.4200000
  -2.0101164  -1.3348340 -13.3749586  -1.3500000  -2.9790000 -14.5560000
  -1.0217543  -2.3123472 -15.3534519  -1.2220000  -4.3700000 -14.6250000
  -0.4190000  -3.7320000 -19.1000000   0.2530000  -2.7000000 -18.9650000
  -0.5370000  -4.3540000 -20.2760000  -1.2087690  -5.0931164 -20.4261091
   0.3680000  -4.0100000 -21.3670000   1.3954479  -4.0036663 -21.0031182
   0.2580000  -5.0310000 -22.5080000   0.2222158  -6.0208584 -22.0530285
  -0.6807619  -4.8358124 -23.0263897   1.4190000  -4.9710000 -23.5120000
   1.1051677  -5.5558221 -24.3766348   1.5498491  -3.9297063 -23.8064233
   2.7360000  -5.5170000 -22.9820000   2.7230000  -6.2860000 -21.9960000
   3.7890000  -5.1570000 -23.5480000   0.0980000  -2.6050000 -21.8960000
  -1.0570000  -2.1860000 -22.0540000   1.1830000  -1.8810000 -22.1830000
   2.0745284  -2.3331710 -22.0387160   1.1760000  -0.4950000 -22.6510000
   0.2104571  -0.2570875 -23.0973448   1.4220000   0.4630000 -21.4710000
   0.7093977   0.2613252 -20.6712347   2.4367742   0.3438407 -21.0913495
   1.2660000   1.9060000 -21.8290000   0.0090000   2.4410000 -22.0480000
  -0.8668965   1.8003380 -21.9457391  -0.1440000   3.7720000 -22.3930000
  -1.1392574   4.1789729 -22.5717076   0.9670000   4.5860000 -22.5110000
   0.8491951   5.6379336 -22.7711110   2.2260000   4.0650000 -22.2990000
   3.1056695   4.7000287 -22.4039774   2.3720000   2.7280000 -21.9510000
   3.3653878   2.3170111 -21.7710869   2.2480000  -0.3040000 -23.7190000
   3.3670000  -0.8100000 -23.5670000   1.9480000   0.4010000 -24.8150000
   0.6420000   0.9770000 -25.1720000   0.2603089   1.5579765 -24.3324296
  -0.0570109   0.1737562 -25.4049853   0.9550000   1.8310000 -26.3710000
   1.1537050   2.8513270 -26.0430544   0.1003606   1.8272884 -27.0475199
   2.1570000   1.2230000 -27.0250000   2.7483059   2.0182309 -27.4789428
   1.9095052   0.4780449 -27.7812327   2.9510000   0.5680000 -25.8840000
   3.3255073  -0.4178861 -26.1594469   4.1140000   1.4460000 -25.4380000
   3.9220000   2.5690000 -24.9670000   5.3360000   0.9320000 -25.6030000
   5.4851709   0.0152532 -25.9997653   6.4940000   1.6730000 -25.1220000
   6.3205737   2.0131785 -24.1010685   7.7350000   0.7780000 -25.1350000
   8.4409047   1.2163251 -24.4295434   7.4168385  -0.1986874 -24.7703701
   8.4050000   0.6190000 -26.4880000   7.7250641   0.1315908 -27.1867276
   8.6904977   1.5949331 -26.8806166   9.6430000  -0.2350000 -26.3100000
  10.1063855  -0.4184901 -27.2793834  10.3527057   0.2762098 -25.6595526
   9.2970000  -1.5160000 -25.7080000   8.5125833  -2.0160305 -26.1013947
   9.9470000  -2.0600000 -24.6870000  11.0040000  -1.4740000 -24.1500000
  11.3307490  -0.5924260 -24.5190019  11.4796018  -1.9107524 -23.3733727
   9.5230000  -3.2170000 -24.1920000   8.7147307  -3.6692484 -24.5948302
  10.0107366  -3.6394070 -23.4149646   6.7430000   2.9450000 -25.9220000
   7.3710000   3.8770000 -25.4010000   6.2550000   3.0210000 -27.1600000
   5.8252719   2.2445594 -27.6422584   6.4600000   4.2630000 -27.8950000
   7.4687596   4.6348218 -27.7154118   6.2820000   4.0340000 -29.4070000
   6.4186384   4.9861375 -29.9197020   7.0510838   3.3332888 -29.7319828
   4.9150000   3.4680000 -29.7850000   3.8980000   3.7360000 -29.1460000
   4.8940000   2.6740000 -30.8540000   4.0219725   2.2657744 -31.1589915
   5.7501981   2.4837136 -31.3548161   5.5680000   5.3980000 -27.4030000
   5.7500000   6.5340000 -27.8550000   4.6370000   5.1330000 -26.4820000
   4.4154231   4.1674470 -26.2852502   3.8830000   6.1700000 -25.7890000
   3.7864886   7.0492547 -26.4259426   2.4790000   5.6590000 -25.4430000
   2.6052341   4.7240440 -24.8970866   2.0211308   6.4016640 -24.7896195
   1.5780000   5.4230000 -26.6560000   2.0823764   4.7366445 -27.3361627
   0.6447196   4.9751201 -26.3146889   1.2820000   6.7140000 -27.3740000
   0.9730836   7.4662147 -26.6481607   2.1811511   7.0535973 -27.8881015
   0.2150000   6.5470000 -28.3580000  -0.6445878   6.1213335 -28.0417467
   0.3110000   6.9090000 -29.6290000   1.4190000   7.4490000 -30.1110000
   2.2132270   7.5917274 -29.5036019   1.4652173   7.7158774 -31.0840057
  -0.7340000   6.7330000 -30.4330000  -1.5846385   6.3278743 -30.0691493
  -0.6720160   7.0052977 -31.4036239   4.5820000   6.6580000 -24.5170000
   4.0030000   7.4650000 -23.7820000   5.8020000   6.1930000 -24.2450000
   6.1817159   5.4721038 -24.8418450   6.6130000   6.6650000 -23.1300000
   5.9885663   7.2436726 -22.4493241   7.2320000   5.4980000 -22.3540000
   7.8032387   4.9865720 -23.1287431   7.9144485   5.8954989 -21.6027618
   6.2700000   4.5110000 -21.6960000   5.4934650   4.2395085 -22.4111130
   7.0150000   3.2610000 -21.2590000   7.7914488   3.5316520 -20.5434767
   6.3171716   2.5662205 -20.7916482   7.4716049   2.7871004 -22.1279255
   5.5340000   5.1770000 -20.5380000   4.9669229   6.0303240 -20.9099692
   4.8524188   4.4603394 -20.0798013   6.2559180   5.5169799 -19.7954725
   7.7340000   7.5500000 -23.6550000   8.3820000   7.2120000 -24.6470000
   7.9750000   8.6750000 -22.9900000   7.3148295   9.0032741 -22.2997027
   9.1430000   9.5000000 -23.2770000   9.7778059   8.9853290 -23.9982728
   8.7440000  10.8610000 -23.8590000   9.6452484  11.3637730 -24.2098130
   8.0716228  10.6927177 -24.7002431   8.0990000  11.6690000 -22.8950000
   7.8628205  12.5115020 -23.2899804   9.9430000   9.6500000 -21.9920000
   9.4410000  10.1930000 -20.9990000  11.1680000   9.1350000 -22.0020000
  11.5612406   8.7603950 -22.8535470  11.9600000   9.0540000 -20.7810000
  11.3187368   8.7789863 -19.9435944  13.0550000   8.0040000 -20.9210000
  13.6976167   8.2537959 -21.7652422  13.6530345   7.9584204 -20.0108477
  12.5440000   6.6200000 -21.1670000  11.5210000   6.0960000 -20.3940000
  11.0841837   6.7072925 -19.6043083  11.0540000   4.8160000 -20.6140000
  10.2500773   4.4164063 -19.9958302  11.6020000   4.0450000 -21.6120000
  11.2327815   3.0346589 -21.7880354  12.6260000   4.5550000 -22.3950000
  13.0641408   3.9486560 -23.1877671  13.0910000   5.8360000 -22.1680000
  13.8972931   6.2396286 -22.7804339  12.5850000  10.3960000 -20.4340000
  12.9920000  11.1590000 -21.3150000  12.6690000  10.6680000 -19.1360000
  12.2930091  10.0046871 -18.4736208  13.2770000  11.8760000 -18.6260000
  13.6522842  12.4648067 -19.4629992  12.5246545  12.4511190 -18.0862651
  14.4260000  11.5640000 -17.6880000  15.2520000  10.6940000 -17.9810000
  14.4750000  12.2470000 -16.5470000  13.7320774  12.8847548 -16.2991407
  15.6170000  12.1370000 -15.6520000  16.5335417  12.2516058 -16.2307192
  15.5660000  13.2390000 -14.5950000  15.5668536  14.2129359 -15.0844357
  14.6580985  13.1320559 -14.0013857  16.7843090  13.1269020 -13.6846256
  16.7838951  12.1533360 -13.1944524  17.6926506  13.2342183 -14.2775006
  16.7334031  14.2268618 -12.6295795  16.7342547  15.2007981 -13.1190142
  15.8255024  14.1199156 -12.0359649  17.9517139  14.1147642 -11.7192067
  17.9513014  13.1411982 -11.2290338  18.8600533  14.2220834 -12.3120822
  17.9026423  15.1750520 -10.7022107  17.0612401  15.0755300 -10.1524494
  18.7095238  15.1008118 -10.0992757  17.9034483  16.0772702 -11.1561940
  15.6650000  10.7670000 -14.9780000  14.6370000  10.1330000 -14.7210000
  16.8810000  10.3100000 -14.6960000  17.7019980  10.8132086 -15.0007011
  17.0660000   9.0530000 -13.9870000  16.3617717   8.3080175 -14.3573549
  18.4860000   8.5280000 -14.1940000  19.1912220   9.3273308 -13.9663327
  18.7640000   7.3330000 -13.2900000  18.0594182   6.5330339 -13.5174167
  19.7812339   6.9790003 -13.4573877  18.6504628   7.6310490 -12.2477061
  18.6430000   8.1290000 -15.5590000  19.5337965   7.7980443 -15.6951993
  16.7750000   9.2630000 -12.5070000  17.2740000  10.2150000 -11.8960000
  15.9500000   8.3880000 -11.9370000  15.5486151   7.6451320 -12.4911991
  15.5580000   8.4950000 -10.5370000  15.7197795   9.5120918 -10.1799973
  14.0720000   8.1520000 -10.3820000  13.9861797   7.1193887 -10.7203016
  13.8335233   8.2068095  -9.3198207  13.0930000   9.0320000 -11.1720000
  13.3884605   9.0349539 -12.2211879  11.6740000   8.5010000 -11.0470000
  11.3776458   8.4981805  -9.9980648  10.9956574   9.1385817 -11.6139582
  11.6298418   7.4849736 -11.4392254  13.1670000  10.4580000 -10.6570000
  14.1806446  10.8383418 -10.7833492  12.4722380  11.0837060 -11.2172670
  12.9013309  10.4773807  -9.6000500  16.3780000   7.6030000  -9.6190000
  16.5500000   7.9300000  -8.4400000  16.8750000   6.4860000 -10.1350000
  16.6367568   6.2255696 -11.0813168  17.7570000   5.6150000  -9.3840000
  18.5023515   6.2012682  -8.8465617  17.1857239   5.0163523  -8.6745186
  18.4590000   4.6950000 -10.3480000  17.9450000   4.4020000 -11.4310000
  19.6530000   4.2520000  -9.9680000  20.0545971   4.4995424  -9.0749480
  20.4420000   3.4350000 -10.8760000  19.7720744   2.8242105 -11.4811736
  21.2950000   4.3020000 -11.8120000  21.9774198   4.9127765 -11.2209371
  21.8688946   3.6599967 -12.4802642  20.6453682   4.9498666 -12.4005122
  21.3220000   2.4880000 -10.0780000  21.7120000   2.7820000  -8.9440000
  21.6070000   1.3380000 -10.6820000  21.1868940   1.1410170 -11.5791109
  22.4970000   0.3500000 -10.1090000  23.2599936   0.8599025  -9.5208339
  21.9214544  -0.3113831  -9.4613743  23.1730000  -0.4770000 -11.1820000
  23.0800000  -0.1560000 -12.3700000  23.8550000  -1.5510000 -10.7800000
  23.9625453  -1.7715431  -9.8002582  24.5210000  -2.4040000 -11.7580000
  25.1680687  -1.7859064 -12.3803837  25.3810000  -3.4480000 -11.0450000
  24.7458755  -4.0805086 -10.4247986  25.8942317  -4.0629810 -11.7842509
  26.1168362  -2.9458105 -10.4169474  23.5150000  -3.0830000 -12.6800000
  23.7770000  -3.2620000 -13.8750000  22.3540000  -3.4550000 -12.1470000
  22.1377129  -3.2376184 -11.1846776  21.3970000  -4.2460000 -12.9080000
  21.9202112  -4.8895783 -13.6152172  20.5790000  -5.1260000 -11.9580000
  20.3124604  -4.5663079 -11.0614507  19.6715201  -5.4712870 -12.4533355
  21.3110000  -6.3550000 -11.4960000  22.2070000  -7.0000000 -12.3360000
  22.3737335  -6.6045075 -13.3379409  22.8850000  -8.1310000 -11.9170000
  23.5864946  -8.6269770 -12.5878300  22.6720000  -8.6320000 -10.6460000
  23.2036525  -9.5230454 -10.3121083  21.7810000  -7.9990000  -9.7970000
  21.6099812  -8.3901524  -8.7940780  21.1050000  -6.8650000 -10.2240000
  20.4030016  -6.3652768  -9.5564860  20.4610000  -3.4030000 -13.7680000
  20.0370000  -3.8650000 -14.8340000  20.1310000  -2.1890000 -13.3520000
  20.5043364  -1.7968689 -12.4993849  19.2100000  -1.3880000 -14.1300000
  19.6093727  -1.2880530 -15.1392627  18.2518383  -1.9062019 -14.1686314
  19.0010000  -0.0120000 -13.5460000  19.8110000   0.4810000 -12.7620000
  17.8950000   0.6120000 -13.9440000  17.2632282   0.1905203 -14.6098218
  17.6130000   1.9600000 -13.4860000  17.9497306   2.0722887 -12.4554162
  18.3340000   2.9990000 -14.3530000  18.2759656   3.9489474 -13.8216516
  19.3754899   2.6849438 -14.4220479  17.7620000   3.1650000 -15.7500000
  17.7419555   2.1916379 -16.2401686  16.7462176   3.5523145 -15.6707816
  18.6120000   4.1310000 -16.5720000  18.4185240   5.1461838 -16.2254920
  19.6632347   3.8886290 -16.4162394  18.2830000   4.0300000 -18.0530000
  18.5723181   3.0366460 -18.3959919  17.2063425   4.1545108 -18.1687793
  18.9920000   5.0610000 -18.8630000  19.9896768   4.9455290 -18.7561953
  18.7429929   4.9544978 -19.8360122  18.7237235   5.9815410 -18.5456184
  16.1110000   2.1940000 -13.4720000  15.3360000   1.4240000 -14.0450000
  15.7150000   3.2480000 -12.7660000  16.3931077   3.7145112 -12.1806483
  14.3450000   3.7430000 -12.7650000  13.7273668   3.2032852 -13.4828693
  13.6940000   3.6330000 -11.3760000  14.3054314   4.1684836 -10.6497024
  12.2890000   4.2400000 -11.4060000  11.6768020   3.7047015 -12.1317893
  11.8358573   4.1575590 -10.4180903  12.3524973   5.2905662 -11.6895143
  13.6530000   2.1800000 -10.9250000  14.6680525   1.7860916 -10.8739438
  13.1896458   2.1175843  -9.9403646  13.0718976   1.5942129 -11.6372320
  14.3770000   5.1890000 -13.2250000  15.1270000   6.0030000 -12.6730000
  13.5750000   5.5060000 -14.2380000  12.9677849   4.8036444 -14.6355999
  13.5780000   6.8340000 -14.8350000  14.2120724   7.5228000 -14.2767833
  14.0540000   6.8050000 -16.3030000  14.1660743   7.8293532 -16.6583015
  15.3880000   6.0780000 -16.4210000  15.2765971   5.0533674 -16.0662912
  15.7062232   6.0684809 -17.4634701  16.1367634   6.5913809 -15.8177629
  13.0020000   6.1560000 -17.1820000  12.0741838   6.7246135 -17.1192472
  13.3494902   6.1415107 -18.2150248  12.8252385   5.1348141 -16.8443085
  12.1860000   7.4380000 -14.7540000  11.1710000   6.7320000 -14.7640000
  12.1550000   8.7650000 -14.6510000  13.0004798   9.2664754 -14.4190827
  10.9330000   9.5280000 -14.8480000  10.1301005   9.1046906 -14.2444599
  11.1430000  10.9840000 -14.4300000  11.6123567  10.9661478 -13.4463919
  11.8305209  11.4243807 -15.1521356   9.8640000  11.8200000 -14.3690000
   9.3592909  11.7363261 -15.3314803   9.2277059  11.4033158 -13.5882291
  10.1410000  13.2810000 -14.0690000  11.3330000  13.6490000 -14.0030000
   9.1730000  14.0610000 -13.9010000  10.5270000   9.4740000 -16.3120000
  11.3770000   9.4670000 -17.2070000   9.2220000   9.4360000 -16.5640000
   8.5255025   9.3944190 -15.8337524   8.7750000   9.3880000 -17.9460000
   9.4454214   9.9934729 -18.5559483   8.7790000   7.9550000 -18.4890000
   8.1051584   7.3385571 -17.8939910   8.4463224   7.9582940 -19.5269861
   9.7883677   7.5474245 -18.4328003   7.3890000   9.9970000 -18.0570000
   6.6390000  10.0800000 -17.0810000   7.0770000  10.4500000 -19.2660000
   7.8060002  10.5159603 -19.9619219   5.7390000  10.8810000 -19.6280000
   5.1627186  11.1053979 -18.7304230   5.7940000  12.1390000 -20.5020000
   6.4335285  11.9398101 -21.3618994   4.4060000  12.5300000 -20.9830000
   3.7659851  12.7298092 -20.1236067   4.4738574  13.4254256 -21.6008248
   3.9814817  11.7155269 -21.5699568   6.3500000  13.2210000 -19.7410000
   6.3856400  14.0104242 -20.2861051   5.0700000   9.7340000 -20.3720000
   5.6540000   9.1710000 -21.3040000   3.8750000   9.3660000 -19.9380000
   3.4891525   9.8231587 -19.1242267   3.1030000   8.2980000 -20.5620000
   3.6884290   7.7803496 -21.3218751   2.6280000   7.2740000 -19.5290000
   2.0326186   7.7758975 -18.7662943   2.0207869   6.5147560 -20.0218905
   3.4917421   6.8008539 -19.0619009   1.9250000   8.9470000 -21.2710000
   1.0530000   9.5340000 -20.6190000   1.9000000   8.8490000 -22.5990000
   2.6448449   8.3680921 -23.0827695   0.8480000   9.4710000 -23.3940000
   0.4992251  10.3796399 -22.9032569   1.3790000   9.8370000 -24.7780000
   2.3140232  10.3802453 -24.6411955   1.5740650   8.9083509 -25.3143399
   0.4120000  10.6890000 -25.5780000   0.7763907  10.8277646 -26.5958726
  -0.5482836  10.1739187 -25.6034714   0.2130000  12.0590000 -24.9410000
  -0.8450000  12.3510000 -24.3800000   1.2480000  12.8950000 -24.9980000
   1.1718342  13.8165522 -24.5917466   2.1044040  12.6036685 -25.4472211
  -0.3390000   8.5130000 -23.4850000  -0.2180000   7.4120000 -24.0340000
  -1.4820000   8.9270000 -22.9410000  -1.5175925   9.8176352 -22.4660248
  -2.6960000   8.1330000 -23.0070000  -3.5122672   8.8071323 -22.7474759
  -2.7980687   7.8231697 -24.0470416  -2.7670000   6.9060000 -22.1170000
  -3.4700000   5.9500000 -22.4600000  -2.0930000   6.9150000 -20.9630000
  -1.5718619   7.7326781 -20.6803041  -2.0310000   5.7240000 -20.1130000
  -1.8414896   4.8396881 -20.7214222  -0.9000000   5.8680000 -19.0950000
  -0.0046166   5.8230238 -19.7149717  -0.9753846   6.8544909 -18.6375583
  -0.8150000   4.7990000 -17.9950000  -1.6789207   4.9311153 -17.3436265
  -0.7980000   3.3750000 -18.5320000   0.0659579   3.2419771 -19.1831379
  -0.7369315   2.6731807 -17.7002422  -1.7108346   3.1885645 -19.0977519
   0.4220000   5.0450000 -17.1290000   0.3539461   6.0308537 -16.6690428
   0.4780844   4.2843982 -16.3502569   1.3165333   4.9952626 -17.7498344
  -3.3460000   5.4420000 -19.3960000  -3.8300000   4.3020000 -19.3890000
  -3.9070000   6.4350000 -18.7250000  -3.4374935   7.3258886 -18.6476663
  -5.1650000   6.2520000 -18.0100000  -5.4428559   5.2004827 -17.9378433
  -5.0870000   6.8620000 -16.5930000  -4.9235186   7.9364276 -16.6765437
  -6.3830000   6.6030000 -15.8320000  -6.5469337   5.5287047 -15.7476441
  -6.3129917   7.0386981 -14.8353222  -7.2166763   7.0562184 -16.3683545
  -3.8740000   6.3190000 -15.8350000  -3.0535364   6.2585803 -16.5500452
  -3.6293373   7.0483803 -15.0628316  -4.0890000   4.9590000 -15.1960000
  -4.3332642   4.2289445 -15.9676565  -3.1792780   4.6513363 -14.6803954
  -4.9090672   5.0187442 -14.4804441  -6.3210000   6.8390000 -18.7960000
  -7.3640000   6.2050000 -18.9570000  -6.1270000   8.0390000 -19.3160000
  -5.2708764   8.5278308 -19.0964637  -7.0980000   8.7010000 -20.1630000
  -8.0073885   8.1029102 -20.2213131  -7.4520000  10.0730000 -19.5940000
  -6.5387302  10.6650012 -19.5342341  -8.1532692  10.5555466 -20.2747865
  -8.0810000   9.9670000 -18.2070000  -7.5636534   9.1899592 -17.6442737
  -7.9673013  10.9224834 -17.6949197  -9.5490000   9.6220000 -18.3090000
 -10.0103408  10.3036696 -19.0235559  -9.6339129   8.5992936 -18.6763703
 -10.2570000   9.7390000 -16.9670000  -9.7645553   9.0991999 -16.2347060
 -10.2261605  10.7732265 -16.6241828 -11.6750000   9.3110000 -17.1260000
 -11.7038037   8.3525500 -17.4432438 -12.1509248   9.3862872 -16.2383472
 -12.1316086   9.9039983 -17.8042040  -6.4870000   8.8220000 -21.5510000
  -5.3090000   9.1690000 -21.6870000  -7.2870000   8.5170000 -22.5750000
  -8.2702803   8.3341480 -22.4342010  -6.7430000   8.3790000 -23.9240000
  -5.9806573   7.6001837 -23.9434396  -7.8580000   7.9950000 -24.8950000
  -8.5180622   8.8515675 -25.0317821  -7.4143676   7.7222620 -25.8525512
  -8.6010000   6.9040000 -24.3930000  -9.2960010   6.6768853 -25.0150871
  -6.0470000   9.6420000 -24.4140000  -5.1030000   9.5580000 -25.2080000
  -6.4960000  10.8160000 -23.9700000  -7.2033169  10.8545262 -23.2500570
  -6.0330000  12.0690000 -24.5510000  -5.3996419  11.8692947 -25.4153347
  -7.2270000  12.9050000 -25.0040000  -6.8554363  13.9159637 -25.1713085
  -7.6188745  12.5032110 -25.9383982  -8.3240000  12.9380000 -23.9730000
  -8.3950000  11.9890000 -23.1610000  -9.1370000  13.8900000 -23.9900000
  -5.1670000  12.8780000 -23.5940000  -4.9620000  14.0750000 -23.8170000
  -4.6580000  12.2540000 -22.5330000  -4.8013965  11.2617177 -22.4108824
  -3.9280000  12.9780000 -21.5020000  -3.7482191  13.9981943 -21.8410894
  -4.7240000  13.0300000 -20.1930000  -4.9040091  12.0159422 -19.8360918
  -4.1569928  13.5829250 -19.4440827  -5.6778132  13.5281599 -20.3667136
  -2.5760000  12.3280000 -21.2600000  -2.4540000  11.1010000 -21.2840000
  -1.5660000  13.1620000 -21.0290000  -1.7071921  14.1541218 -21.1549305
  -0.2420000  12.6970000 -20.6460000  -0.0959526  11.6780837 -21.0045790
   0.8450000  13.5890000 -21.2510000   0.7174898  14.6109462 -20.8939746
   1.8262684  13.2201424 -20.9524087   0.7663515  13.5719731 -22.3380252
  -0.1190000  12.6690000 -19.1250000  -0.7390000  13.4630000 -18.4130000
   0.6950000  11.7400000 -18.6360000   1.2471055  11.2005595 -19.2873699
   0.8150000  11.4410000 -17.2170000   0.4854293  12.2908418 -16.6192950
  -0.0650000  10.2380000 -16.8820000  -1.0576489  10.6443650 -16.6880545
  -0.0917230   9.6316529 -17.7873889   0.3550000   9.4000000 -15.7410000
   1.2600070   8.8362372 -15.9673509   0.5136055   9.9949684 -14.8415785
  -0.9940000   8.2590000 -15.4610000  -0.8650000   8.0810000 -13.6890000
  -0.9967014   9.0536961 -13.2150632  -1.6366061   7.3974012 -13.3348569
   0.1171696   7.6830880 -13.4338331   2.2720000  11.1510000 -16.8860000
   2.9530000  10.4480000 -17.6370000   2.7550000  11.6950000 -15.7700000
   2.2076811  12.3431378 -15.2218588   4.1170000  11.4010000 -15.3370000
   4.7592807  11.3129714 -16.2132566   4.6520000  12.5260000 -14.4500000
   3.9939644  12.6410347 -13.5886891   6.0560000  12.2070000 -13.9740000
   6.7147570  12.0922732 -14.8347999   6.4199406  13.0188346 -13.3442612
   6.0439256  11.2802685 -13.4003071   4.6930000  13.7370000 -15.2130000
   5.0279056  14.4498498 -14.6641068   4.1270000  10.0690000 -14.5930000
   3.2650000   9.8180000 -13.7460000   5.0770000   9.1980000 -14.9380000
   5.7315452   9.4539535 -15.6633673   5.1990000   7.8770000 -14.3310000
   4.6833413   7.8169174 -13.3725714   4.6580000   6.7630000 -15.2530000
   4.8322567   5.7967217 -14.7796713   3.1620000   6.9470000 -15.4980000
   2.9869887   7.9129296 -15.9717637   2.7996013   6.1521664 -16.1499258
   2.6300557   6.9074303 -14.5474364   5.4410000   6.7320000 -16.5640000
   6.4933899   6.5401199 -16.3548123   5.0482873   5.9416900 -17.2037551
   5.3409152   7.6920381 -17.0703701   6.6700000   7.6200000 -14.0250000
   7.5590000   8.3370000 -14.4900000   6.9250000   6.5660000 -13.2540000
   6.1818219   6.1464980 -12.7138114   8.2680000   6.0140000 -13.1270000
   8.9884431   6.7065012 -13.5623194   8.6520000   5.7630000 -11.6640000
   7.9449242   5.0642030 -11.2169803   9.6563041   5.3418021 -11.6185487
   8.6281496   6.7043013 -11.1149260   8.3440000   4.7140000 -13.9170000
   7.3820000   3.9400000 -13.9460000   9.4780000   4.4810000 -14.5780000
  10.2205179   5.1653352 -14.5567458   9.6680000   3.2780000 -15.3840000
   8.8405202   2.5860476 -15.2272258   9.7740000   3.5850000 -16.8880000
  10.6996018   4.1240704 -17.0899000   9.7720000   2.2890000 -17.6520000
   8.8464370   1.7495425 -17.4509538   9.8468176   2.4958572 -18.7195734
  10.6212953   1.6812761 -17.3397969   8.6200000   4.4770000 -17.3460000
   8.6455241   5.4168097 -16.7944492   8.7177891   4.6794795 -18.4125547
   7.6727226   3.9716041 -17.1580072  10.9230000   2.5580000 -14.9080000
  12.0120000   3.1430000 -14.9080000  10.7720000   1.2870000 -14.5320000
   9.8397707   0.8987177 -14.5488719  11.8680000   0.4390000 -14.0640000
  12.7150389   1.0565881 -13.7653210  11.4160000  -0.3900000 -12.8560000
  11.0485412   0.3301143 -12.1248991  10.5866329  -1.0014375 -13.2115201
  12.4780000  -1.2970000 -12.1960000  12.6836053  -2.1406820 -12.8548081
  13.3921374  -0.7225662 -12.0460643  11.9690000  -1.8200000 -10.8330000
  11.5491875  -0.9789064 -10.2812591  11.1878218  -2.5564238 -11.0215205
  13.0880000  -2.4630000 -10.0090000  13.3992921  -3.3733767 -10.5212617
  13.9224477  -1.7625563  -9.9747249  12.6590000  -2.7980000  -8.6110000
  11.8860683  -3.4473706  -8.6425309  13.4312156  -3.2176509  -8.1133292
  12.3709147  -1.9544991  -8.1360136  12.3280000  -0.4750000 -15.1970000
  11.5000000  -1.0930000 -15.8820000  13.6410000  -0.5720000 -15.3900000
  14.3020275  -0.1276822 -14.7689335  14.1560000  -1.3110000 -16.5290000
  13.4761117  -2.1293164 -16.7660850  14.2900000  -0.4160000 -17.7590000
  15.0216084  -0.8662236 -18.4299301  13.3207824  -0.3722580 -18.2557936
  14.7360000   0.9910000 -17.3940000  14.7968729   1.0274299 -16.3063106
  15.7315235   1.1232466 -17.8177285  13.6670000   2.3170000 -17.9710000
  14.7240000   3.1340000 -19.1630000  14.9992657   2.4297714 -19.9481050
  14.1922766   3.9778545 -19.6026367  15.6248725   3.4924686 -18.6649736
  15.5160000  -1.9030000 -16.1980000  16.2820000  -1.3490000 -15.4040000
  15.8090000  -3.0310000 -16.8280000  15.0884369  -3.5139656 -17.3453320
  17.1350000  -3.6240000 -16.7760000  17.6492994  -3.2898541 -15.8749218
  17.0510000  -5.1500000 -16.7530000  16.4884964  -5.3930183 -17.6544605
  18.0695209  -5.5263156 -16.8484035  16.3810000  -5.7980000 -15.5460000
  15.7322367  -5.0736355 -15.0535541  15.5570000  -6.9780000 -16.0110000
  16.2051951  -7.7030587 -16.5031705  15.0750500  -7.4460652 -15.1526644
  14.7960780  -6.6364761 -16.7127546  17.4270000  -6.2300000 -14.5350000
  17.9938680  -5.3599832 -14.2035927  16.9360878  -6.6911456 -13.6779987
  18.1034322  -6.9496083 -14.9961967  17.9550000  -3.1740000 -17.9790000
  17.4210000  -2.7530000 -19.0110000  19.2640000  -3.2680000 -17.8310000
  19.6785248  -3.4896536 -16.9370547  20.1470000  -2.9980000 -18.9510000
  19.7680513  -2.1559349 -19.5301575  21.5410000  -2.6530000 -18.4460000
  21.8885191  -3.4674803 -17.8104282  22.2042849  -2.5550681 -19.3053966
  21.5440000  -1.3580000 -17.6550000  20.9125769  -1.4719499 -16.7738524
  22.5629270  -1.1276058 -17.3438597  21.0060000  -0.2180000 -18.5240000
  21.7779985   0.5489913 -18.5859816  20.8115734  -0.6183210 -19.5190080
  19.7230000   0.3950000 -17.9620000  19.2035371  -0.3573928 -17.3685660
  19.9855476   1.2406740 -17.3263873  18.8380000   0.8570000 -19.0580000
  18.5942513   0.0734500 -19.6468427  17.9978579   1.2577776 -18.6660325
  19.3190017   1.5545003 -19.6077542  20.1970000  -4.1990000 -19.8910000
  19.9270000  -5.3290000 -19.4800000  20.5060000  -3.9770000 -21.1720000
  20.6850000  -2.6880000 -21.8630000  21.6873028  -2.3042545 -21.6726616
  19.9474510  -1.9711957 -21.5020123  20.4700000  -3.0550000 -23.3120000
  21.0006563  -2.3640023 -23.9670000  19.4081346  -3.0448904 -23.5578474
  21.0310000  -4.4470000 -23.4120000  22.1204095  -4.4288094 -23.4429021
  20.6528915  -5.0017461 -24.2707143  20.5570000  -5.1090000 -22.1110000
  19.5449163  -5.5022459 -22.2066164  21.4900000  -6.2190000 -21.6650000
  21.2260000  -7.3940000 -21.9560000  22.5630000  -5.8850000 -20.9460000
  22.7433279  -4.9100658 -20.7534269  23.5200000  -6.8720000 -20.4660000
  23.7720536  -7.5717056 -21.2628565  24.7980000  -6.1680000 -20.0120000
  25.4456293  -6.8965095 -19.5241994  25.3043756  -5.7610634 -20.8872636
  24.5020000  -5.1160000 -19.1050000  25.3176156  -4.6886110 -18.8335047
  22.9810000  -7.7260000 -19.3240000  23.6950000  -8.6280000 -18.8720000
  21.7610000  -7.4740000 -18.8540000  21.1774256  -6.7757521 -19.2921669
  21.2540000  -8.1530000 -17.6670000  21.9710634  -8.0320028 -16.8550401
  19.9210000  -7.5470000 -17.2350000  19.1899684  -7.6685768 -18.0343197
  19.5649984  -8.0531289 -16.3376725  20.0549594  -6.4860144 -17.0241358
  21.0960000  -9.6480000 -17.9200000  20.5690000 -10.0660000 -18.9560000
  21.5540000 -10.4500000 -16.9600000  21.9970227 -10.0597033 -16.1405498
  21.4700000 -11.8970000 -17.0750000  21.9137245 -12.2094015 -18.0203111
  22.2320000 -12.5700000 -15.9310000  23.2775262 -12.2632038 -15.9601596
  21.7934760 -12.2740073 -14.9780126  22.2238249 -14.0797007 -15.9599590
  22.8703892 -14.8385166 -14.9913252  22.6872198 -16.1129920 -15.2821219
  23.1158397 -16.8849019 -14.6429514  21.9663862 -16.2023743 -16.3723097
  21.6829487 -17.0673010 -16.8101053  21.6558566 -14.9591320 -16.8278531
  21.0571054 -14.8435419 -17.7313116  20.0210000 -12.3600000 -17.0670000
  19.1280000 -11.6780000 -16.5480000  19.7970000 -13.5390000 -17.6530000
  20.5475033 -14.0158020 -18.1320659  18.4690000 -14.1480000 -17.6670000
  17.7917307 -13.5725757 -18.2981041  18.5750000 -15.5610000 -18.2280000
  17.6002547 -16.0461183 -18.1767068  18.9035512 -15.5157425 -19.2663188
  19.5140000 -16.3050000 -17.4670000  19.5798365 -17.1947730 -17.8213578
  17.8400000 -14.1770000 -16.2780000  16.6210000 -14.0190000 -16.1350000
  18.6580000 -14.3830000 -15.2400000  19.6406453 -14.5710707 -15.3783365
  18.1350000 -14.4010000 -13.8770000  17.3586378 -15.1627288 -13.8053756
  19.2500000 -14.7450000 -12.8880000  18.8430418 -14.7761663 -11.8773003
  19.8397988 -16.1064752 -13.2403453  20.2473973 -16.0759485 -14.2508061
  20.6344374 -16.3521064 -12.5358497  19.0597210 -16.8658753 -13.1865803
  20.2738552 -13.7492023 -12.9587543  20.9736459 -13.9651011 -12.3380442
  17.4980000 -13.0660000 -13.5160000  16.4800000 -13.0230000 -12.8170000
  18.0790000 -11.9650000 -14.0000000  18.9170628 -12.0185881 -14.5611403
  17.5550000 -10.6460000 -13.6640000  17.3647741 -10.6106439 -12.5913103
  18.5840000  -9.5720000 -14.0130000  19.5107645  -9.7670020 -13.4733881
  18.7781501  -9.5889236 -15.0854362  18.0489806  -8.2157437 -13.6200325
  17.1223980  -8.0198244 -14.1596258  17.8550143  -8.1979014 -12.5475783
  19.0774521  -7.1422931 -13.9688560  19.0040266  -6.6252775 -15.1155490
  19.9267039  -6.8495537 -13.0852976  16.2290000 -10.3760000 -14.3660000
  15.3310000  -9.7540000 -13.7850000  16.0840000 -10.8360000 -15.6130000
  16.8343367 -11.3251274 -16.0797425  14.8540000 -10.5860000 -16.3560000
  14.6426947  -9.5168020 -16.3397226  15.0210000 -11.0290000 -17.8100000
  15.8521703 -10.4878128 -18.2620749  15.2240969 -12.0993968 -17.8432009
  13.7404317 -10.7307235 -18.5825286  12.9088419 -11.2719635 -18.1312875
  13.5369155  -9.6603798 -18.5501645  13.9069786 -11.1725271 -20.0325964
  14.7381498 -10.6313419 -20.4846717  14.1100736 -12.2429240 -20.0657961
  12.6809487 -10.8980283 -20.8148381  11.8956331 -10.4700084 -20.3456070
  12.5660652 -11.1892328 -22.1074720  13.5560041 -11.7533593 -22.7935352
  14.4265144 -11.9722731 -22.3305140  13.4327038 -11.9602481 -23.7743989
  11.4180678 -10.8992679 -22.7132140  10.6683116 -10.4708977 -22.1893202
  11.3013107 -11.1087728 -23.6943226  13.6670000 -11.2940000 -15.7160000
  12.5860000 -10.7100000 -15.5800000  13.8500000 -12.5570000 -15.3290000
  14.7041941 -13.0478496 -15.5515275  12.7970000 -13.2840000 -14.6290000
  11.8800239 -13.2790136 -15.2182615  13.2300000 -14.7330000 -14.4120000
  14.1160157 -14.7142628 -13.7773944  12.4187449 -15.2379595 -13.8876135
  13.5440000 -15.4800000 -15.6980000  12.6085791 -15.7748864 -16.1735320
  14.0747470 -14.7806984 -16.3440527  14.4040000 -16.7090000 -15.4690000
  15.1590000 -17.0860000 -16.3920000  14.3480000 -17.2830000 -14.3600000
  12.4570000 -12.6180000 -13.3040000  11.2870000 -12.5650000 -12.9110000
  13.4700000 -12.1040000 -12.6000000  14.4251605 -12.1983071 -12.9144422
  13.2250000 -11.4510000 -11.3190000  12.6533605 -12.1298236 -10.6861288
  14.5460000 -11.1310000 -10.6230000  15.1257381 -10.4449098 -11.2404820
  14.3453906 -10.6682394  -9.6567140  15.1111407 -12.0511097 -10.4742945
  12.3940000 -10.1880000 -11.4960000  11.5110000  -9.9030000 -10.6790000
  12.6610000  -9.4120000 -12.5510000  13.4505406  -9.5706440 -13.1605548
  11.8320000  -8.2370000 -12.7860000  11.7645514  -7.6471327 -11.8718849
  12.4290000  -7.3640000 -13.8870000  13.4225034  -7.1248181 -13.5077345
  12.5207119  -7.9812106 -14.7807225  11.6890000  -6.0660000 -14.2360000
  10.6945378  -6.3299474 -14.5958298  11.5640000  -5.1310000 -13.0370000
  12.5581341  -4.8662244 -12.6768750  11.0331418  -4.2267073 -13.3345653
  11.0112881  -5.6310858 -12.2416862  12.4090000  -5.3530000 -15.3860000
  12.4297116  -6.0028267 -16.2608690  11.8803318  -4.4317488 -15.6307599
  13.4297119  -5.1166552 -15.0853551  10.4040000  -8.6480000 -13.1190000
   9.4490000  -8.0080000 -12.6690000  10.2380000  -9.7210000 -13.8920000
  11.0187674 -10.1896533 -14.3288817   8.8940000 -10.2050000 -14.1780000
   8.2751103  -9.3894413 -14.5520838   8.9480000 -11.3000000 -15.2360000
   9.8629005 -11.1598613 -15.8116886   8.9879124 -12.2587658 -14.7190134
   7.7690000 -11.2800000 -16.1600000   7.7892615 -12.1991064 -16.7456054
   6.8669662 -11.2592661 -15.5484387   7.7600000  -9.8660000 -17.2770000
   6.1450000 -10.1420000 -17.9940000   5.3890103 -10.1147027 -17.2092494
   5.9347424  -9.3636889 -18.7275695   6.1255497 -11.1160646 -18.4827955
   8.2110000 -10.7110000 -12.9160000   7.0080000 -10.4990000 -12.7300000
   8.9620000 -11.3820000 -12.0420000   9.9196481 -11.6228626 -12.2541194
   8.3970000 -11.8410000 -10.7770000   7.5142227 -12.4527891 -10.9627892
   9.4220000 -12.6810000 -10.0200000  10.3757785 -12.1534456 -10.0103982
   9.0765959 -12.8247933  -8.9962229   9.5860000 -13.9380000 -10.6420000
  10.2327323 -14.4540024 -10.1550928   7.9340000 -10.6670000  -9.9250000
   6.8640000 -10.7270000  -9.3110000   8.7310000  -9.5970000  -9.8650000
   9.6653724  -9.6154124 -10.2480256   8.2830000  -8.3830000  -9.1940000
   8.0852030  -8.5955842  -8.1433890   9.3500000  -7.2940000  -9.2790000
  10.2453812  -7.6566784  -8.7741673   9.5726408  -7.1190896 -10.3315861
   8.8950000  -5.9890000  -8.6320000   8.0416095  -5.6452334  -9.2165084
   8.5773522  -6.1874711  -7.6083749   9.9720000  -4.9160000  -8.6290000
  11.1210000  -5.2140000  -9.0070000   9.6700000  -3.7790000  -8.2080000
   6.9820000  -7.8830000  -9.7980000   6.0340000  -7.5590000  -9.0780000
   6.9270000  -7.8020000 -11.1270000   7.7373687  -7.9819944 -11.7023294
   5.6990000  -7.3660000 -11.7800000   5.4449027  -6.3499722 -11.4779716
   5.9070000  -7.3880000 -13.2970000   6.6377894  -6.5960873 -13.4610743
   6.3807925  -8.3570621 -13.4536506   4.7480000  -7.2230000 -14.2800000
   4.0135368  -8.0127360 -14.1219442   4.1070000  -5.8940000 -14.0490000
   4.8407788  -5.1036847 -14.2073325   3.2779819  -5.7640520 -14.7446604
   3.7337474  -5.8429271 -13.0261733   5.2570000  -7.2810000 -15.7180000
   5.7379627  -8.2429625 -15.8952073   4.4195593  -7.1619535 -16.4054753
   5.9774411  -6.4795575 -15.8815650   4.5230000  -8.2370000 -11.3490000
   3.4500000  -7.7230000 -11.0020000   4.7320000  -9.5550000 -11.2900000
   5.6244517  -9.9545426 -11.5429722   3.6440000 -10.4620000 -10.9290000
   2.7449871 -10.2088733 -11.4909625   4.0330000 -11.9000000 -11.2540000
   4.9841577 -12.0992643 -10.7603483   3.2636027 -12.5480050 -10.8342176
   4.1680000 -12.1730000 -12.7400000   3.2420962 -11.8882099 -13.2396974
   4.9918872 -11.5801718 -13.1373243   4.4410000 -13.6430000 -12.9830000
   5.3682644 -13.9101645 -12.4761442   3.6180894 -14.2209387 -12.5624000
   4.5680000 -13.9480000 -14.4610000   3.6944340 -13.5579035 -14.9833100
   5.4668031 -13.4690122 -14.8493592   4.6580000 -15.4200000 -14.6750000
   3.8250517 -15.8639869 -14.3155942   4.7423012 -15.6120200 -15.6629887
   5.4676419 -15.7816051 -14.1914497   3.2520000 -10.3340000  -9.4630000
   2.0720000 -10.4930000  -9.1320000   4.2100000 -10.0530000  -8.5770000
   5.1857316 -10.0633279  -8.8376540   3.8690000  -9.8150000  -7.1730000
   3.2498372 -10.6198158  -6.7767574   5.1470000  -9.7110000  -6.3190000
   5.8664485  -9.0740464  -6.8335709   4.8270000  -9.1130000  -4.9450000
   4.1079121  -9.7496939  -4.4296027   5.7411955  -9.0468578  -4.3551082
   4.4039312  -8.1164487  -5.0714913   5.7580000 -11.0880000  -6.1660000
   6.0072617 -11.4867668  -7.1493390   6.6629113 -11.0194973  -5.5622264
   5.0442746 -11.7503728  -5.6761438   2.9950000  -8.5710000  -7.0510000
   1.9550000  -8.5770000  -6.3760000   3.3930000  -7.4930000  -7.7300000
   4.2530805  -7.5061875  -8.2593268   2.6280000  -6.2500000  -7.6830000
   2.4760061  -5.9397648  -6.6491958   3.3940000  -5.1470000  -8.4170000
   3.6887016  -5.6035831  -9.3618714   2.7275940  -4.3068426  -8.6122911
   4.6500000  -4.6450000  -7.6750000   5.2585099  -5.4948011  -7.3657191
   5.4530000  -3.7620000  -8.6050000   4.8452647  -2.9116755  -8.9143621
   6.3427895  -3.4029801  -8.0878152   5.7502389  -4.3343382  -9.4837369
   4.3000000  -3.8990000  -6.3750000   3.7576314  -4.5676470  -5.7065339
   5.2167509  -3.5652280  -5.8889287   3.6774022  -3.0350729  -6.6075963
   1.2380000  -6.4320000  -8.2920000   0.2560000  -5.8640000  -7.8020000
   1.1340000  -7.2230000  -9.3600000   1.9527980  -7.6142787  -9.8033624
  -0.1740000  -7.4960000  -9.9550000  -0.6847160  -6.5596834 -10.1798992
  -0.0040000  -8.2840000 -11.2540000   0.6671453  -7.7299562 -11.9102764
   0.4375550  -9.2519757 -11.0170352  -1.2530000  -8.4800000 -11.9090000
  -1.1150632  -8.9762550 -12.7191260  -1.0700000  -8.2550000  -8.9820000
  -2.2670000  -7.9650000  -8.8610000  -0.4990000  -9.2260000  -8.2620000
   0.4734902  -9.4673367  -8.3889594  -1.2900000 -10.0120000  -7.3190000
  -2.2239369 -10.3035075  -7.7995043  -0.5260000 -11.2760000  -6.9300000
  -0.3073654 -11.8588610  -7.8247465   0.4075342 -11.0004163  -6.4394213
  -1.3662879 -12.1012236  -5.9850012  -0.8740276 -13.3137877  -5.4876396
   0.1157979 -13.6621656  -5.7825598  -1.6531036 -14.0788953  -4.6114831
  -1.2698428 -15.0229630  -4.2242506  -2.9244399 -13.6314414  -4.2326858
  -3.6812555 -14.3746890  -3.3815611  -3.2472930 -15.1846371  -3.1036035
  -3.4167028 -12.4188774  -4.7300448  -4.4065291 -12.0705012  -4.4351240
  -2.6376310 -11.6537665  -5.6062019  -3.0208925 -10.7096982  -5.9934302
  -1.6530000  -9.1980000  -6.0840000  -2.7540000  -9.3460000  -5.5420000
  -0.7370000  -8.3350000  -5.6250000   0.1487979  -8.2279408  -6.0982861
  -0.9740000  -7.5530000  -4.4120000  -1.1615370  -8.2175341  -3.5686000
   0.2510000  -6.6990000  -4.0970000   0.5967449  -6.3933012  -5.0844755
  -0.1359840  -5.8309599  -3.5632868   1.4140000  -7.2990000  -3.3150000
   1.8440987  -8.1376470  -3.8625282   2.4620000  -6.2220000  -3.1380000
   2.0327454  -5.3831568  -2.5901119   3.3073800  -6.6250713  -2.5803559
   2.8018867  -5.8808384  -4.1158477   0.9580000  -7.8340000  -1.9490000
   0.2047651  -8.6083154  -2.0945069   1.8127588  -8.2543326  -1.4190856
   0.5324778  -7.0194809  -1.3628357  -2.1950000  -6.6560000  -4.5530000
  -2.9840000  -6.5170000  -3.6130000  -2.3630000  -6.0350000  -5.7210000
  -1.7502176  -6.2343575  -6.4987234  -3.4190000  -5.0640000  -5.9110000
  -3.6450760  -5.0031754  -6.9755606  -4.3026962  -5.4044493  -5.3713013
  -3.0340000  -3.6840000  -5.4080000  -1.9620000  -3.4530000  -4.8340000
  -3.9600000  -2.7530000  -5.6100000  -4.8521115  -3.0107121  -6.0072668
  -3.7130000  -1.3480000  -5.3220000  -2.7076284  -1.0652284  -5.6340375
  -4.7210000  -0.4960000  -6.0920000  -4.8915858  -0.9321377  -7.0762681
  -5.6546386  -0.4935318  -5.5294940  -4.2630000   0.9250000  -6.2690000
  -4.4200000   1.7510000  -5.3690000  -3.6700000   1.2200000  -7.4250000
  -3.3430545   2.1602231  -7.5958422  -3.5501168   0.5020597  -8.1252075
  -3.8010000  -1.0610000  -3.8240000  -4.6320000  -1.6320000  -3.1150000
  -2.9230000  -0.1800000  -3.3390000  -2.1485924   0.1178424  -3.9149186
  -3.0190000   0.3480000  -1.9810000  -4.0715404   0.3793495  -1.6994415
  -2.2600000  -0.4890000  -0.9460000  -2.4808380  -1.5494232  -1.0677882
  -1.1872740  -0.3273046  -1.0518939  -2.6090000  -0.1380000   0.4690000
  -2.0190000   0.9090000   1.1460000  -2.5340000   0.9890000   2.3620000
  -2.2114425   1.7695482   3.0510574  -3.4160000   0.0160000   2.5060000
  -3.9590695  -0.1765676   3.3355138  -3.4810000  -0.7030000   1.3370000
  -4.1572865  -1.5541314   1.2575446  -2.4780000   1.7710000  -1.9590000
  -1.4870000   2.0810000  -2.6330000  -3.1110000   2.6200000  -1.1440000
  -3.8889968   2.3161360  -0.5761206  -2.7210000   4.0240000  -1.0880000
  -2.8251983   4.4783554  -2.0732934  -3.6140000   4.7820000  -0.1030000
  -4.6457536   4.6619833  -0.4334237  -3.4907366   4.3202931   0.8766596
  -3.2820000   6.2570000  -0.0110000  -2.3185983   6.3392090   0.4921894
  -3.2015129   6.6665301  -1.0179291  -4.3200000   7.0280000   0.7630000
  -4.5310000   6.7100000   1.9540000  -4.9390000   7.9370000   0.1710000
  -1.2630000   4.1990000  -0.6840000  -0.6090000   5.1580000  -1.1110000
  -0.7340000   3.2990000   0.1330000  -1.2561216   2.4823802   0.4169375
   0.5700000   3.5260000   0.7330000   0.9033206   4.5453486   0.5382565
   0.4790000   3.3230000   2.2410000   0.1048461   2.3131542   2.4092843
   1.4557229   3.4313148   2.7125722  -0.4800000   4.3080000   2.8810000
  -1.4670000   3.9210000   3.4960000  -0.2110000   5.5950000   2.6900000
  -0.8138430   6.2987904   3.0916954   0.5950984   5.8636564   2.1439873
   1.6570000   2.6670000   0.1080000   2.6970000   2.4220000   0.7330000
   1.4440000   2.2180000  -1.1230000   0.5128203   2.2434269  -1.5133296
   2.5040000   1.6100000  -1.9090000   3.4930648   1.8013317  -1.4927762
   2.3060000   0.0850000  -2.0880000   3.1783969  -0.3161847  -2.6038244
   2.1370000  -0.6260000  -0.7440000   1.2644681  -0.2256457  -0.2277586
   2.0005952  -1.6942821  -0.9121301   3.0253531  -0.4653739  -0.1331586
   1.1510000  -0.2150000  -3.0350000   0.2218156   0.0228452  -2.5171710
   1.2557018   0.4302781  -3.9072117   1.1250000  -1.6570000  -3.4770000
   1.0198440  -2.3029093  -2.6053101   0.2826127  -1.8160841  -4.1501828
   2.0537318  -1.8954770  -3.9953491   2.5790000   2.3230000  -3.2520000
   1.6150000   2.9490000  -3.7010000   3.7590000   2.2730000  -3.8640000
   4.5635368   1.8999554  -3.3806186   3.9440000   2.7970000  -5.2100000
   3.4096529   3.7388084  -5.3347767   5.4290000   3.0310000  -5.5190000
   5.9785437   2.1191807  -5.2851484   5.6430000   3.3900000  -6.9770000
   5.0940964   4.3020388  -7.2115016   6.7056578   3.5487758  -7.1604372
   5.2832549   2.5775491  -7.6083545   5.9710000   4.1530000  -4.6240000
   5.8596506   3.8694687  -3.5774278   7.0255906   4.3174562  -4.8451166
   5.4133853   5.0703721  -4.8126666   3.3090000   1.7790000  -6.1480000
   3.7970000   0.6540000  -6.2830000   2.1830000   2.1420000  -6.7420000
   1.8305157   3.0877079  -6.7033895   1.3850000   1.1370000  -7.4220000
   1.4879009   0.1826831  -6.9054829  -0.0880000   1.5220000  -7.4440000
  -0.2014869   2.5383726  -7.8211031  -0.6162719   0.8304100  -8.1003018
  -0.7000000   1.4470000  -6.0760000  -0.9110000   0.3560000  -5.5590000
  -0.9720000   2.5950000  -5.4720000  -1.3845055   2.5917267  -4.5500844
  -0.7655112   3.4677909  -5.9364342   1.8550000   0.8850000  -8.8390000
   2.3680000   1.7720000  -9.5250000   1.6750000  -0.3610000  -9.2570000
   1.4339416  -1.0791917  -8.5890248   1.8480000  -0.7450000 -10.6520000
   2.8196258  -0.4191665 -11.0233153   1.7720000  -2.2630000 -10.7540000
   2.6272652  -2.6074816 -10.1726627   0.8501315  -2.5660870 -10.2576162
   1.8240000  -2.8750000 -12.1400000   1.1012256  -2.3776110 -12.7867628
   3.2300000  -2.6990000 -12.7170000   3.9533242  -3.1965529 -12.0709798
   3.2717509  -3.1378286 -13.7138887   3.4680445  -1.6370494 -12.7777948
   1.4380000  -4.3460000 -12.0190000   0.4308843  -4.4254176 -11.6097198
   1.4671648  -4.8120268 -13.0039211   2.1397730  -4.8530351 -11.3567847
   0.7800000  -0.0930000 -11.5220000  -0.4180000  -0.1310000 -11.2020000
   1.2130000   0.4920000 -12.6440000   2.2055103   0.5546960 -12.8203291
   0.3060000   1.0890000 -13.6030000  -0.7183965   1.0211897 -13.2367859
   0.6550000   2.5730000 -13.8160000   1.6949531   2.5460966 -14.1413813
   0.0330502   2.9648483 -14.6208189   0.5270000   3.4870000 -12.5740000
   1.1508980   3.0947876 -11.7708676   0.9810000   4.9030000 -12.9260000
   0.3572257   5.2960819 -13.7288020   0.8892089   5.5431947 -12.0486028
   2.0208677   4.8812016 -13.2520373  -0.8960000   3.4960000 -12.0210000
  -1.1803539   2.4842832 -11.7317397  -0.9436834   4.1493688 -11.1498302
  -1.5813692   3.8607821 -12.7860504   0.3150000   0.3770000 -14.9500000
  -0.6750000   0.4800000 -15.6910000   1.3800000  -0.3480000 -15.2850000
   2.1303473  -0.5179964 -14.6306458   1.4860000  -0.9180000 -16.6190000
   0.7034348  -1.6643598 -16.7555212   1.3663954  -0.1272601 -17.3596244
   2.8330000  -1.5760000 -16.8150000   3.7280000  -1.4990000 -15.9620000
   2.9800000  -2.2090000 -17.9830000   2.2232422  -2.2566978 -18.6501896
   4.2310000  -2.8820000 -18.3080000   5.0674039  -2.3205434 -17.8917139
   4.2740000  -4.3130000 -17.7500000   3.4477257  -4.8902864 -18.1648629
   5.2185696  -4.7824502 -18.0247817   4.1862506  -4.2828352 -16.6639570
   4.4010000  -2.9130000 -19.8170000   3.4240000  -2.8620000 -20.5630000
   5.6500000  -3.0040000 -20.2540000   6.4124409  -2.9331144 -19.5953966
   5.9700000  -3.1890000 -21.6650000   5.0455797  -3.3099496 -22.2297278
   6.7350000  -1.9940000 -22.2310000   7.7443696  -1.9851132 -21.8196689
   6.7862567  -2.0806442 -23.3163412   6.0390000  -0.3560000 -21.8900000
   6.9777563   0.3309221 -22.5348045   6.8100000  -4.4540000 -21.7290000
   7.9530000  -4.4620000 -21.2640000   6.2400000  -5.5270000 -22.2780000
   5.3123125  -5.4695970 -22.6732215   6.8880000  -6.8310000 -22.2230000
   7.8076004  -6.7634079 -21.6417379   5.9590000  -7.8530000 -21.5540000
   6.4553348  -8.8228780 -21.5210031   5.6270000  -7.4020000 -20.1310000
   5.1301929  -6.4323380 -20.1632180   4.9672708  -8.1322879 -19.6624532
   6.5465595  -7.3194530 -19.5516064   4.7360000  -7.9800000 -22.2870000
   4.1687965  -8.6223358 -21.8542353   7.3530000  -7.3080000 -23.5970000
   7.6670000  -8.4900000 -23.7690000   7.4290000  -6.4010000 -24.5680000
   7.0440273  -5.4818173 -24.4036879   7.9840000  -6.6930000 -25.8850000
   8.9101361  -7.2563925 -25.7711581   7.0120000  -7.5170000 -26.7250000
   7.4574245  -7.8088103 -27.6760747   6.7271252  -8.4099684 -26.1686243
   5.7460000  -6.7940000 -27.0500000   5.6830000  -5.7810000 -27.9850000
   4.4450000  -5.3220000 -28.0500000   4.1859492  -4.5171362 -28.7378851
   3.7060000  -5.9960000 -27.1870000   2.7193149  -5.8611233 -27.0185937
   4.4960000  -6.9200000 -26.5460000   4.0643899  -7.5740021 -25.7883093
   8.3350000  -5.3750000 -26.5650000   7.9730000  -4.2920000 -26.0950000
   9.0520000  -5.4830000 -27.6810000   9.2527997  -6.3893640 -28.0788482
   9.5640000  -4.3080000 -28.3560000   9.7380093  -4.5775772 -29.3977044
   8.7941410  -3.5381082 -28.3042010  10.8420000  -3.7640000 -27.7700000
  11.2470000  -2.6500000 -28.1230000  11.4890000  -4.5140000 -26.8850000
  11.1422812  -5.4359154 -26.6614884  12.6820000  -4.0550000 -26.2240000
  13.5574432  -4.3828715 -26.7845344  12.6722365  -2.9663575 -26.1705066
  12.7570000  -4.6150000 -24.8240000  12.0390000  -5.5510000 -24.4700000
  13.6380000  -4.0550000 -24.0010000  14.6120000  -2.9930000 -24.3000000
  14.1300845  -2.0175416 -24.2341316  15.0160649  -3.1310725 -25.3028791
  15.6490000  -3.1980000 -23.2310000  16.1814387  -2.2676863 -23.0332010
  16.3607669  -3.9661751 -23.5333182  14.8570000  -3.6420000 -22.0340000
  14.4061795  -2.7634559 -21.5724590  15.4278205  -4.1922020 -21.2859750
  13.7640000  -4.5400000 -22.6220000  14.0566660  -5.5896882 -22.6464857
  12.4490000  -4.3980000 -21.8680000  11.6340000  -3.5140000 -22.1490000
  12.2330000  -5.3080000 -20.9210000  12.8778826  -6.0707441 -20.7711760
  11.0310000  -5.2490000 -20.1010000  10.1411989  -5.2533563 -20.7305509
  10.9690000  -6.4520000 -19.1590000  11.8072491  -6.3973685 -18.4644109
   9.6620000  -6.4630000 -18.3770000   8.8232493  -6.5180919 -19.0709466
   9.6418777  -7.3280337 -17.7141192   9.5842048  -5.5507556 -17.7855115
  11.0750000  -7.6550000 -19.9230000  11.0363983  -8.4123542 -19.3343364
  11.0020000  -3.9530000 -19.3000000  11.9950000  -3.5700000 -18.6680000
   9.8580000  -3.2750000 -19.3380000   9.1086286  -3.6346084 -19.9117801
   9.6310000  -2.0390000 -18.6000000  10.5321731  -1.7736779 -18.0471976
   9.2830000  -0.8900000 -19.5480000   8.2791112  -1.1333564 -19.8959714
   9.2484090   0.0189332 -18.9473803  10.1980000  -0.6710000 -20.7490000
  10.1854338  -1.5546981 -21.3869817   9.7020000   0.5290000 -21.5370000
   9.7147196   1.4132375 -20.8997707  10.3507015   0.6925760 -22.3975405
   8.6841221   0.3435794 -21.8799928  11.6360000  -0.4640000 -20.2830000
  11.9710953  -1.3444275 -19.7346772  12.2801519  -0.3086602 -21.1484704
  11.6855392   0.4091811 -19.6324621   8.4820000  -2.2290000 -17.6190000
   7.4120000  -2.7130000 -18.0010000   8.6890000  -1.8310000 -16.3680000
   9.6140617  -1.5578361 -16.0684309   7.6170000  -1.8490000 -15.3760000
   6.6992117  -2.2721581 -15.7842903   8.0140000  -2.6500000 -14.1300000
   8.9216291  -2.2228732 -13.7035362   6.8930000  -2.5990000 -13.0950000
   5.9851017  -3.0264081 -13.5206101   7.1848152  -3.1707956 -12.2140947
   6.7075355  -1.5633275 -12.8102421   8.3450000  -4.0950000 -14.5280000
   9.1727225  -4.0965520 -15.2372074   8.6266917  -4.6614495 -13.6403715
   7.4709738  -4.5546013 -14.9894603   7.2630000  -0.4030000 -15.0370000
   8.1240000   0.3690000 -14.5990000   6.0020000  -0.0350000 -15.2560000
   5.3466285  -0.7356069 -15.5718125   5.5290000   1.3380000 -15.1070000
   6.3373352   2.0620550 -15.0048346   4.6120000   1.7550000 -16.2670000
   3.7224369   1.1251198 -16.2616447   4.1980000   3.2260000 -16.1180000
   5.0870654   3.8565795 -16.1237361   3.5485510   3.5069756 -16.9470774
   3.6640619   3.3602172 -15.1772583   5.2580000   1.4490000 -17.6230000
   6.0916690   2.1373398 -17.7618708   5.6331146   0.4259871 -17.5941364
   4.2850000   1.5970000 -18.7730000   3.9097850   2.6199496 -18.8027924
   4.7923157   1.3691811 -19.7104585   3.4512290   0.9085980 -18.6350566
   4.7960000   1.4610000 -13.7820000   3.8080000   0.7590000 -13.5480000
   5.2710000   2.3590000 -12.9170000   6.0963992   2.8896923 -13.1561258
   4.6620000   2.5800000 -11.6130000   3.7327469   2.0179741 -11.5196467
   5.6040000   2.1650000 -10.4710000   5.0429011   2.1783686  -9.5366074
   6.1750000   0.7690000 -10.7010000   6.7366622   0.7549699 -11.6350441
   6.8367367   0.5060450  -9.8757374   5.3601179   0.0472263 -10.7567724
   6.6620000   3.1250000 -10.3690000   7.2552415   2.8730008  -9.6575499
   4.2860000   4.0490000 -11.4530000   4.6560000   4.9050000 -12.2600000
   3.5660000   4.3360000 -10.3700000   3.1942677   3.5963641  -9.7913349
   3.2670000   5.7160000 -10.0050000   2.7096396   6.2033341 -10.8049712
   2.4180000   5.7440000  -8.7290000   2.9700701   5.2095149  -7.9559260
   2.3010052   6.7872626  -8.4357163   1.0430000   5.1080000  -8.9030000
   0.5203628   5.7018853  -9.6528342   1.1746356   4.0911115  -9.2727420
   0.2280000   5.0790000  -7.6230000   0.7910000   4.7190000  -6.5700000
  -0.9840000   5.3920000  -7.6740000   4.5560000   6.5050000  -9.7880000
   5.5790000   5.9600000  -9.3720000   4.4960000   7.8030000 -10.0690000
   3.6623255   8.1711364 -10.5043870   5.6000000   8.7180000  -9.8060000
   6.5118633   8.1506661  -9.6196219   5.8340000   9.6400000 -11.0060000
   6.1662122   9.0080757 -11.8296541   4.8678848  10.0800456 -11.2531463
   6.8460000  10.7420000 -10.7760000   8.2080000  10.4960000 -10.8960000
   8.5404759   9.4907787 -11.1550162   9.1360000  11.5000000 -10.6930000
  10.2027830  11.2977508 -10.7887661   8.7010000  12.7670000 -10.3630000
   9.6130000  13.7710000 -10.1590000  10.5212903  13.4812456 -10.2714758
   7.3540000  13.0360000 -10.2390000   7.0117399  14.0383855  -9.9817418
   6.4380000  12.0260000 -10.4430000   5.3717080  12.2289963 -10.3434307
   5.2800000   9.5370000  -8.5600000   4.1980000  10.1230000  -8.4660000
   6.2220000   9.5780000  -7.6040000   7.0616866   9.0282847  -7.7173088
   6.0530000  10.3390000  -6.3660000   5.0135902  10.6499553  -6.2609612
   6.4300000   9.4810000  -5.1600000   7.2317491   8.7844441  -5.4051682
   6.7319108  10.0984986  -4.3140418   5.0430000   8.4660000  -4.5730000
   5.7057130   7.8890486  -3.5745829   6.9010000  11.6040000  -6.4570000
   8.1320000  11.5320000  -6.4820000   6.2450000  12.7660000  -6.5020000
   5.2623823  12.8403490  -6.2805639   6.9440000  13.9640000  -6.9630000
   7.5571370  13.7272255  -7.8325401   5.9350000  15.0390000  -7.3560000
   6.4376094  15.9503664  -7.6798740   5.2747388  14.6874519  -8.1488236
   4.8750000  15.5130000  -6.0040000   4.1729288  16.4129540  -6.6866985
   7.9280000  14.5250000  -5.9420000   8.8270000  15.2810000  -6.3270000
   7.8010000  14.1730000  -4.6670000   7.0332398  13.5993254  -4.3483450
   8.7360000  14.6910000  -3.6740000   9.1924888  15.6106707  -4.0399548
   8.0070000  14.9950000  -2.3610000   7.5096022  14.0825607  -2.0321395
   8.7503511  15.2901097  -1.6204331   6.9830000  16.1000000  -2.5160000
   7.3780000  17.4010000  -2.7970000   8.4417942  17.6168667  -2.8962113
   6.4480000  18.4160000  -2.9510000   6.7740181  19.4307852  -3.1790898
   5.1040000  18.1380000  -2.8130000   4.1800000  19.1480000  -2.9620000
   4.5813783  19.9975560  -3.1588494   4.6830000  16.8530000  -2.5280000
   3.6217647  16.6292820  -2.4192326   5.6250000  15.8420000  -2.3800000
   5.3027090  14.8257304  -2.1532297   9.9190000  13.7630000  -3.4100000
  10.8080000  14.1290000  -2.6350000   9.9730000  12.5910000  -4.0410000
   9.2265169  12.2856968  -4.6489904  11.1210000  11.7160000  -3.8660000
  11.1241536  10.9911664  -4.6800672  12.0240407  12.3241850  -3.9182292
  11.1020000  10.9710000  -2.5400000  10.0820000  10.8900000  -1.8510000
  12.2660000  10.4270000  -2.1780000  13.0857939  10.5687549  -2.7506629
  12.3790000   9.5550000  -1.0090000  11.5080473   8.9026570  -0.9458393
  13.6340000   8.6860000  -1.1180000  13.5387541   7.9106634  -0.3578154
  13.6612930   8.2247701  -2.1052295  14.9170000   9.4650000  -0.8880000
  15.4060000  10.0840000  -1.8530000  15.4560000   9.4390000   0.2380000
  12.3820000  10.3330000   0.3030000  12.8770000  11.4610000   0.3870000
  11.8350000   9.6960000   1.3440000  11.5135331   8.7431108   1.2504027
  11.6370000  10.3710000   2.6240000  11.1156354  11.3155866   2.4689701
  10.7980000   9.4970000   3.5600000  10.2381942   8.8991033   2.8408086
  11.5064990   8.8592495   4.0885864   9.8290000  10.1250000   4.5650000
  10.4023812  10.5505383   5.3885605   8.9990000  11.2220000   3.9030000
   8.4249481  10.7971036   3.0795765   8.3173031  11.6545091   4.6353428
   9.6612881  11.9987577   3.5207405   8.9360000   9.0530000   5.1750000
   9.5523158   8.3145330   5.6877580   8.2513504   9.5122434   5.8880579
   8.3642018   8.5637774   4.3864526  12.9610000  10.7180000   3.2910000
  13.0520000  11.7390000   3.9810000  13.9910000   9.8890000   3.1070000
  13.8978923   9.0379473   2.5711459  15.2760000  10.1700000   3.7430000
  15.1484168  10.2386701   4.8233269  16.2730000   9.0520000   3.4390000
  15.8159984   8.1344547   3.8096202  16.4069838   8.9802936   2.3596453
  17.6310000   9.2500000   4.1080000  18.0701833  10.1892371   3.7717672
  17.4480000   9.2880000   5.6160000  17.0092575   8.3488531   5.9530564
  18.4160920   9.4292998   6.0965548  16.7871923  10.1131443   5.8816510
  18.5680000   8.1410000   3.7100000  18.6978399   8.1451880   2.6277692
  19.5341852   8.2904766   4.1919173  18.1513802   7.1832150   4.0217287
  15.8250000  11.5170000   3.2900000  16.1740000  12.3680000   4.1150000
  15.8840000  11.7350000   1.9750000  15.6437151  11.0089290   1.3153157
  16.3590000  13.0120000   1.4550000  17.3167329  13.2702204   1.9068508
  16.5440000  12.9130000  -0.0580000  15.8023785  12.2252820  -0.4643752
  16.3985631  13.9018518  -0.4928796  17.9180000  12.4180000  -0.4350000
  18.9270000  12.9710000   0.0020000  17.9690000  11.3680000  -1.2450000
  18.8640811  10.9960039  -1.5288106  17.1124974  10.9457211  -1.5739142
  15.4060000  14.1480000   1.8050000  15.8430000  15.2800000   2.0500000
  14.1010000  13.8670000   1.8270000  13.7562760  12.9600587   1.5464253
  13.1310000  14.8920000   2.1940000  13.2614713  15.7741619   1.5672092
  11.7100000  14.3560000   1.9950000  11.5100809  14.1567068   0.9421877
  11.6019388  13.4336785   2.5657414  10.6230000  15.2890000   2.4720000
  10.1990000  16.3530000   1.6840000  10.6680416  16.5160623   0.7136853
   9.1920000  17.2020000   2.1190000   8.8741749  18.0375986   1.4954112
   8.5910000  16.9870000   3.3460000   7.7983599  17.6503265   3.6921495
   9.0000000  15.9230000   4.1370000   8.5297651  15.7510227   5.1051958
  10.0040000  15.0810000   3.6970000  10.3196610  14.2400499   4.3144633
  13.3490000  15.3510000   3.6310000  13.3740000  16.5550000   3.9150000
  13.5210000  14.4020000   4.5540000  13.4691577  13.4187605   4.3289403
  13.7310000  14.7830000   5.9480000  12.9070180  15.4110098   6.2867574
  13.7980000  13.5470000   6.8360000  14.6538677  13.0062576   6.4320354
  14.0233538  13.8775668   7.8499237  12.5820000  12.6280000   6.8600000
  12.1801709  12.5341371   5.8511274  12.9850000  11.2560000   7.3740000
  13.3865222  11.3489993   8.3830738  12.1127058  10.6025733   7.3894035
  13.7452663  10.8308584   6.7187518  11.4720000  13.2270000   7.7000000
  11.1770818  14.1889475   7.2807390  10.6144039  12.5542284   7.7029102
  11.8249870  13.3692816   8.7213986  14.9970000  15.6130000   6.1020000
  15.0300000  16.5760000   6.8780000  16.0430000  15.2670000   5.3530000
  16.0074913  14.4560685   4.7519771  17.2990000  15.9990000   5.4520000
  17.6006120  16.1004370   6.4945162  18.3870000  15.2290000   4.7010000
  18.0241322  15.0050967   3.6978582  19.2742113  15.8586311   4.6337621
  18.7400000  13.9280000   5.4160000  19.0483178  14.1950941   6.4267926
  17.8279413  13.3327742   5.4602409  19.8370000  13.1220000   4.7500000
  19.4847265  12.7183618   3.8007484  20.7118893  13.7483056   4.5756167
  20.2220000  12.0110000   5.6170000  19.7929674  11.9822115   6.5308937
  21.0700000  11.0460000   5.2850000  21.6590000  11.0200000   4.1000000
  21.4644665  11.7472841   3.4267136  22.3002726  10.2729950   3.8744945
  21.3450000  10.0930000   6.1720000  20.9085189  10.1137183   7.0825795
  21.9889531   9.3533012   5.9306106  17.1630000  17.4320000   4.9400000
  17.7830000  18.3450000   5.4960000  16.3470000  17.6500000   3.9010000
  15.9350192  16.8783707   3.3960649  16.0760000  19.0100000   3.4320000
  17.0150558  19.5387120   3.2684856  15.2990000  18.9760000   2.1160000
  14.4333210  18.3353428   2.2840994  14.9643159  19.9961086   1.9276786
  16.0750000  18.4710000   0.9190000  17.0961982  18.8491467   0.9665406
  16.0905927  17.3812128   0.9339223  15.4160000  18.9510000  -0.3660000
  15.3696282  20.0399737  -0.3752206  15.9866765  18.6048483  -1.2277464
  14.0600000  18.4250000  -0.4620000  13.2998726  19.0477798  -0.2286525
  13.7700000  17.1900000  -0.8510000  14.7190000  16.3330000  -1.1980000
  15.6875976  16.6177146  -1.1687357  14.4694480  15.3989485  -1.4901836
  12.4980000  16.7980000  -0.8770000  11.7689949  17.4406280  -0.6018985
  12.2678226  15.8597752  -1.1717054  15.3060000  19.8220000   4.4670000
  15.6850000  20.9550000   4.7840000  14.2050000  19.2730000   4.9840000
  13.8873680  18.3651688   4.6756954  13.3910000  19.9980000   5.9540000
  13.2945001  21.0402114   5.6497266  11.9910000  19.3830000   6.0450000
  12.0758673  18.4672675   6.6300904  11.3574354  20.0945071   6.5745787
  11.3770000  19.0660000   4.6990000  12.1639899  18.9595014   3.9524038
  10.8101329  18.1372452   4.7636390  10.4480000  20.1990000   4.2970000
   9.4936977  19.7720057   3.9886463  10.2941590  20.8445514   5.1616940
  11.0310000  21.0140000   3.1540000  11.8136477  21.6555835   3.5588873
  11.4657031  20.3233062   2.4314528   9.9980000  21.8550000   2.4790000
   9.5953740  22.4953787   3.1482586  10.4270936  22.3777423   1.7288539
   9.2729054  21.2606546   2.1033800  14.0060000  20.0550000   7.3410000
  13.3830000  20.6400000   8.2350000  15.1950000  19.4800000   7.5400000
  15.7029649  19.0573257   6.7761823  15.7660000  19.3960000   8.8820000
  15.0771137  18.8717193   9.5443176  17.0910000  18.6340000   8.8530000
  16.9721015  17.7815200   8.1842397  17.8534266  19.3036980   8.4551178
  17.5150000  18.1440000  10.2270000  17.4626915  18.9779369  10.9269385
  16.8285646  17.3594575  10.5454361  18.9260000  17.5980000  10.1980000
  19.5520292  18.2373790   9.5756007  19.3280554  17.5717229  11.2107983
  18.9490000  16.2490000   9.6520000  18.0899149  15.9017849   9.2501122
  20.0120000  15.4580000   9.6520000  21.1690000  15.8570000  10.1540000
  21.2525670  16.7832885  10.5478352  21.9634803  15.2335138  10.1411309
  19.9100000  14.2370000   9.1320000  19.0295562  13.9280099   8.7454202
  20.7135121  13.6250886   9.1263875  15.9720000  20.7780000   9.4840000
  15.6200000  21.0210000  10.6440000  16.5380000  21.7000000   8.7040000
  16.7928001  21.4923515   7.7489825  16.8720000  23.0140000   9.2380000
  17.5187117  22.8801755  10.1051529  17.6290000  23.8240000   8.1840000
  18.5278973  23.2840011   7.8865374  16.9910096  23.9740973   7.3130585
  18.0198683  25.1797281   8.7679112  19.1350921  25.2565123   9.3492731
  17.1994955  26.1256343   8.6270218  15.6330000  23.7660000   9.7100000
  15.7010000  24.5130000  10.6920000  14.4880000  23.5580000   9.0530000
  14.4652845  22.8735504   8.3106308  13.2810000  24.3330000   9.3160000
  13.5728310  25.1919606   9.9202520  12.6950000  24.8400000   7.9960000
  13.4480673  25.4200204   7.4625535  12.3896829  23.9914749   7.3837201
  11.4958991  25.7127249   8.2799165  10.7421572  25.1332253   8.8129777
  11.8005410  26.5617716   8.8918088  10.9112891  26.2185187   6.9630523
  10.0243113  25.5097181   6.4167250  11.3572679  27.3088634   6.5160049
  12.2190000  23.5600000  10.0930000  11.0680000  24.0040000  10.1580000
  12.5790000  22.4290000  10.6960000  13.5307907  22.0977627  10.6290993
  11.6140000  21.6160000  11.4260000  10.6955374  21.5147350  10.8478383
  12.1940000  20.2160000  11.6750000  12.2801345  19.6875889  10.7255466
  13.1763457  20.2849366  12.1422737  11.3460000  19.3490000  12.5770000
  11.5320000  19.3610000  13.9560000  12.3012040  20.0054976  14.3814973
  10.7580000  18.5710000  14.7830000  10.9112934  18.6010132  15.8617498
   9.7900000  17.7430000  14.2450000   9.1795214  17.1170123  14.8958112
   9.5980000  17.7110000  12.8770000   8.8370936  17.0597328  12.4469155
  10.3760000  18.5100000  12.0500000  10.2284601  18.4832133  10.9703638
  11.2340000  22.2670000  12.7510000  12.0800000  22.8360000  13.4490000
   9.9530000  22.1710000  13.1040000   9.2795774  21.8556764  12.4204999
   9.4660000  22.5710000  14.4240000  10.2718759  22.5758219  15.1579210
   8.8140000  23.9680000  14.3990000   8.3974412  24.1769133  15.3843594
   9.8340000  25.0420000  14.0410000  10.2506882  24.8340053  13.0555001
   9.3471346  26.0171691  14.0306191  10.6348302  25.0441565  14.7804376
   7.6470000  24.0130000  13.4210000   6.8941682  23.2832548  13.7190239
   7.2071677  25.0103120  13.4250027   8.0034186  23.7776756  12.4181595
   8.4880000  21.5110000  14.9220000   7.6880000  20.9930000  14.1310000
   8.5180000  21.1410000  16.2150000   9.5290000  21.5610000  17.2030000
   9.2988748  22.5690635  17.5478923  10.5140159  21.5532239  16.7363285
   9.4040000  20.5370000  18.2920000   9.5687327  21.0242196  19.2530303
  10.1616877  19.7682227  18.1403686   8.0310000  19.9570000  18.2030000
   7.3549060  20.5329353  18.8348975   7.9989771  18.9083554  18.4986663
   7.6180000  20.0990000  16.7320000   7.7976264  19.1901171  16.1577487
   6.1410000  20.4820000  16.6300000   5.3340000  19.6640000  16.1840000
   5.7720358  21.6222413  16.9023198   5.7560000  26.3230000   4.9560000
   6.4927136  26.5351469   5.6135315   4.8675277  26.5485587   5.3800761
   6.0004189  26.7139722   4.0573901   5.7310000  24.8790000   4.7540000
   4.7539427  24.4929441   5.0445496   5.9790000  24.5270000   3.2840000
   5.2084446  24.9863648   2.6648654   6.9576366  24.8991224   2.9808574
   5.9349311  23.0106661   3.1093047   4.8168215  22.4936815   2.8444283
   7.0197968  22.3838075   3.2424001   6.7730000  24.2040000   5.6370000
   7.7710000  23.6720000   5.1460000   6.5320000  24.2320000   6.9440000
   5.6919228  24.6819369   7.2785541   7.4540000  23.6750000   7.9240000
   8.4505508  23.6159328   7.4863966   7.5210000  24.5540000   9.1780000
   7.8568945  25.5540503   8.9038221   6.5322328  24.6152982   9.6326228
   8.4608347  24.0621094  10.2526422   8.6031023  24.7853841  11.4428659
   8.0354451  25.7035789  11.5938079   9.4744732  24.3293274  12.4392224
   9.5852380  24.8924471  13.3658982  10.2035767  23.1499956  12.2453568
  10.8820006  22.7949223  13.0210912  10.0613114  22.4267184  11.0551334
  10.6289697  21.5085235  10.9041950   9.1899409  22.8827720  10.0587748
   9.0791770  22.3196487   9.1321015   7.0320000  22.2640000   8.3060000
   5.8480000  21.9950000   8.5330000   8.0130000  21.3680000   8.3760000
   8.9516671  21.6094256   8.0918924   7.7560000  20.0080000   8.8220000
   6.8596996  19.6190376   8.3388302   8.9350000  19.1090000   8.4590000
   9.1334516  19.3477932   7.4141584   9.7807136  19.4241971   9.0701623
   8.7340000  17.6040000   8.6070000   8.3955892  17.3877733   9.6203237
   7.6950000  17.1080000   7.6080000   8.0329479  17.3234732   6.5943623
   7.5619527  16.0325140   7.7251710   6.7460789  17.6128322   7.7890901
  10.0600000  16.8910000   8.4040000  10.7763815  17.2357395   9.1496888
   9.9149915  15.8159007   8.5099963  10.4413866  17.1090547   7.4064553
   7.5160000  19.9970000  10.3260000   8.2170000  20.6720000  11.0860000
   6.5050000  19.2430000  10.7570000   5.9759929  18.6975945  10.0915801
   6.1000000  19.2080000  12.1560000   6.8482559  19.6965973  12.7800873
   4.7460000  19.9040000  12.3760000   4.6292241  20.1084966  13.4402579
   4.6630000  21.2070000  11.5980000   4.7792340  21.0032400  10.5335419
   3.6944370  21.6749117  11.7741913   5.4557215  21.8786501  11.9275138
   3.6850000  19.0290000  11.9700000   2.8406450  19.4645183  12.1077994
   6.0150000  17.7720000  12.6550000   6.1050000  16.8090000  11.8860000
   5.8310000  17.6440000  13.9730000   5.8533796  18.4520678  14.5784956
   5.6440000  16.3290000  14.5800000   6.4877606  15.6837707  14.3353647
   5.5510000  16.4560000  16.1000000   6.5221159  16.8644602  16.3796307
   4.7688233  17.1689920  16.3606569   5.3150000  15.1440000  16.8500000
   4.4750187  14.6196042  16.3944330   6.5570000  14.2660000  16.7840000
   7.3973533  14.7895736  17.2398244   6.3740641  13.3358681  17.3220426
   6.7900694  14.0430526  15.7428115   4.8930000  15.3960000  18.2970000
   3.9682857  15.9728912  18.3111191   4.7336066  14.4426538  18.8008114
   5.6756849  15.9524521  18.8126205   4.3980000  15.6400000  14.0400000
   4.3760000  14.4120000  13.8810000   3.3430000  16.4090000  13.7700000
   3.3332309  17.3942926  13.9918162   2.1390000  15.8170000  13.1990000
   1.7409323  15.0553433  13.8694628   1.0760000  16.8960000  13.0000000
   1.0878734  17.5290861  13.8872206   1.3708434  17.4839234  12.1307972
  -0.3210000  16.3490000  12.7890000  -0.3012300  15.7393843  11.8856293
  -0.5872541  15.7249297  13.6420792  -1.3470000  17.4520000  12.6310000
  -1.0210000  18.4790000  11.9980000  -2.4730000  17.2990000  13.1530000
   2.4520000  15.1110000  11.8830000   1.9350000  14.0190000  11.6170000
   3.3160000  15.7110000  11.0610000   3.6802789  16.6289899  11.2724111
   3.7290000  15.0730000   9.8160000   2.8553904  14.8401247   9.2071695
   4.6370000  16.0110000   9.0270000   5.4249715  16.3812293   9.6828433
   5.0845103  15.4930628   8.1787220   3.9400000  17.2130000   8.4750000
   4.4090000  18.4940000   8.6670000   3.6020000  19.3510000   8.0670000
   3.7986665  20.4223036   8.1085925   2.6310000  18.6700000   7.4850000
   1.8689526  19.0619158   6.9504108   2.8200000  17.3300000   7.7220000
   2.1183978  16.6006625   7.3171268   4.4540000  13.7620000  10.0880000
   4.2340000  12.7630000   9.3950000   5.3340000  13.7520000  11.0930000
   5.5211505  14.5852043  11.6323002   6.1010000  12.5480000  11.3920000
   6.5868984  12.1825681  10.4873114   7.1760000  12.8520000  12.4350000
   6.5995103  13.2021517  13.2912434   7.6802240  11.9208280  12.6934122
   8.2190000  13.9090000  12.0550000   7.7277099  14.8772385  11.9588276
   9.2990000  13.9920000  13.1270000   9.7910839  13.0241913  13.2234290
  10.0338604  14.7462191  12.8455138   8.8456121  14.2650383  14.0798851
   8.8300000  13.6190000  10.6880000   8.0454097  13.6190853   9.9313511
   9.5656047  14.3867085  10.4479779   9.3162754  12.6436540  10.7063142
   5.1960000  11.4210000  11.8670000   5.3820000  10.2650000  11.4750000
   4.2230000  11.7300000  12.7260000   4.1444708  12.6568647  13.1195154
   3.2720000  10.7110000  13.1600000   3.8068873   9.8607046  13.5830751
   2.3370000  11.2780000  14.2250000   1.8117572  12.0868029  13.7170067
   1.6270709  10.4945495  14.4901528   2.9980000  11.8180000  15.4950000
   3.7693751  12.5338330  15.2109851   1.9760000  12.5030000  16.3930000
   1.2045008  11.7876242  16.6778250   2.4717327  12.8777325  17.2885029
   1.5193791  13.3345287  15.8561967   3.6720000  10.6840000  16.2290000
   4.4295741  10.2344083  15.5870901   4.1437799  11.0660108  17.1343136
   2.9299868   9.9316334  16.4963198   2.4580000  10.1740000  11.9880000
   2.1420000   8.9790000  11.9370000   2.0780000  11.0540000  11.0590000
   2.2612365  12.0399002  11.1795176   1.3400000  10.6270000   9.8740000
   0.4470257  10.0755367  10.1682522   0.9140000  11.8460000   9.0570000
   0.2140240  12.4364423   9.6481943   1.7972679  12.4450790   8.8355449
   0.2920000  11.4520000   7.8410000   0.0336824  12.2329453   7.3460289
   2.1780000   9.6800000   9.0230000   1.7020000   8.6220000   8.5950000
   3.4390000  10.0430000   8.7760000   3.8031391  10.9333793   9.0837770
   4.3090000   9.1740000   7.9910000   3.8524255   8.9741704   7.0216151
   5.6660000   9.8360000   7.7640000   6.1230455  10.0465950   8.7308807
   6.3243956   9.1886168   7.1847675   5.5940000  11.1400000   7.0310000
   4.4910000  11.4630000   6.2500000   3.6643789  10.7565967   6.1738954
   4.4360000  12.6620000   5.5760000   3.5587707  12.9100756   4.9784819
   5.4880000  13.5480000   5.6560000   5.4475049  14.4946374   5.1171701
   6.5960000  13.2350000   6.4210000   7.4307992  13.9326239   6.4883155
   6.6430000  12.0380000   7.0990000   7.5163408  11.7863987   7.7007247
   4.4870000   7.8220000   8.6690000   4.4690000   6.7810000   8.0020000
   4.6620000   7.8060000   9.9980000   4.7519135   8.6531400  10.5405576
   4.7920000   6.5260000  10.6870000   5.6067941   5.9465843  10.2528488
   5.0960000   6.7640000  12.1670000   5.6670790   5.9181931  12.5498559
   5.6874842   7.6744864  12.2632340   3.8990000   6.8990000  12.9090000
   4.1106490   7.0474249  13.8335402   3.5360000   5.6920000  10.5200000
   3.6050000   4.4720000  10.3210000   2.3800000   6.3430000  10.6130000
   2.3777362   7.3345343  10.8052341   1.1000000   5.6620000  10.4850000
   1.0421087   4.8181217  11.1724716  -0.0160000   6.6490000  10.8280000
   0.1607372   6.9907799  11.8478283   0.1183860   7.4818717  10.1378079
  -1.4200000   6.1240000  10.7120000  -1.7850000   4.9090000  11.2710000
  -1.0319709   4.3191088  11.7935658  -3.0820000   4.4430000  11.1730000
  -3.3573512   3.4838278  11.6114886  -4.0320000   5.1990000  10.5120000
  -5.3290000   4.7450000  10.4070000  -5.4633804   3.8928362  10.8281394
  -3.6950000   6.4120000   9.9550000  -4.4447812   7.0100387   9.4370440
  -2.3980000   6.8690000  10.0560000  -2.1226369   7.8285850   9.6184251
   0.9100000   5.1080000   9.0760000   0.4990000   3.9580000   8.8970000
   1.2220000   5.9130000   8.0680000   1.5868376   6.8413274   8.2267487
   0.9840000   5.4880000   6.6890000  -0.0346448   5.1151495   6.5820211
   1.1710000   6.6610000   5.7500000   2.1758445   7.0473325   5.9206868
   1.1002629   6.2697329   4.7351077   0.1730000   7.7670000   5.9300000
  -0.8283022   7.3646587   5.7763241   0.2365975   8.2124370   6.9227957
   0.4200000   8.8280000   4.9160000   0.4230000   8.5440000   3.7210000
   0.6670000  10.0500000   5.3650000   0.8400878  10.7997097   4.7107237
   0.6810363  10.2260721   6.3594360   1.9030000   4.3400000   6.2950000
   1.4710000   3.3900000   5.6260000   3.1700000   4.3930000   6.7120000
   3.5563397   5.2128910   7.1576678   4.0630000   3.2790000   6.4220000
   4.0192964   2.9890301   5.3721873   5.5170000   3.6410000   6.7720000
   5.5643201   3.9710798   7.8097415   6.4230000   2.4200000   6.5830000
   6.3765603   2.0896015   5.5453193   7.4498309   2.6866212   6.8332636
   6.0880817   1.6138804   7.2357653   5.9830000   4.8120000   5.9030000
   5.3432843   5.6759473   6.0831690   7.0130623   5.0644918   6.1546330
   5.9249211   4.5305169   4.8515748   3.5970000   2.0160000   7.1390000
   3.6380000   0.9200000   6.5710000   3.1410000   2.1350000   8.3950000
   3.1620976   3.0072408   8.9037733   2.6510000   0.9440000   9.0830000
   3.4318625   0.1839733   9.0563092   2.3250000   1.2610000  10.5490000
   1.5381356   2.0140495  10.5921381   1.9873448   0.3542723  11.0509305
   3.2176827   1.6401147  11.0464826   1.4230000   0.3660000   8.3830000
   1.2410000  -0.8600000   8.3430000   0.5660000   1.2400000   7.8430000
   0.7051181   2.2336096   7.9591268  -0.6110000   0.7870000   7.1060000
  -1.1935723   0.0973108   7.7167681  -1.4890000   1.9820000   6.7480000
  -0.8122316   2.7913776   6.4741539  -2.0724783   1.6862753   5.8761055
  -2.4230000   2.4540000   7.8440000  -2.9007373   1.5902937   8.3064710
  -1.8503951   2.9975498   8.5955180  -3.4890000   3.3700000   7.2580000
  -3.8322398   2.9449557   6.3148019  -4.3237114   3.4235297   7.9569212
  -2.9410000   4.7700000   7.0140000  -2.6814951   5.1985102   7.9820583
  -2.0408327   4.6732286   6.4070130  -3.9150000   5.6630000   6.3200000
  -4.7490165   5.7531482   6.8824851  -3.4997716   6.5737697   6.1851522
  -4.1552671   5.2663280   5.4227698  -0.2080000   0.0410000   5.8390000
  -0.7580000  -1.0210000   5.5290000   0.7540000   0.5910000   5.1000000
   1.1572117   1.4837870   5.3458681   1.2510000  -0.0870000   3.9110000
   0.4232094  -0.1949841   3.2101424   2.0261975   0.5352359   3.4637969
   1.8290000  -1.4590000   4.2080000   1.5600000  -2.4210000   3.4870000
   2.6340000  -1.5790000   5.2740000   2.9312599  -0.7967668   5.8395503
   3.1910000  -2.8960000   5.5670000   3.4808735  -3.3757201   4.6321518
   4.4260000  -2.8090000   6.4780000   4.1057689  -2.5666854   7.4913286
   4.9370659  -3.7717614   6.4794631   5.3500000  -1.7610000   5.9890000
   4.8078765  -0.9322949   5.5335323   5.9841077  -1.3827028   6.7908109
   6.3930000  -2.5600000   4.7270000   6.5760000  -4.2430000   5.3040000
   5.5944262  -4.7111949   5.3775209   7.1935256  -4.8032231   4.6019224
   7.0517343  -4.2417157   6.2847020   2.1750000  -3.8480000   6.1670000
   2.2920000  -5.0640000   5.9630000   1.1850000  -3.3350000   6.9030000
   1.1688338  -2.3669110   7.1904748   0.1080000  -4.2080000   7.3540000
   0.5148411  -5.0345889   7.9365207  -0.8720000  -3.4280000   8.2310000
  -1.2946985  -2.6022777   7.6586288  -1.6734742  -4.0901120   8.5586386
  -0.3474348  -3.0347793   9.1018089  -0.6070000  -4.8090000   6.1550000
  -0.9340000  -6.0020000   6.1410000  -0.8050000  -3.9900000   5.1210000
  -0.6029391  -3.0041128   5.2064236  -1.3740000  -4.4720000   3.8710000
  -2.3584677  -4.9052043   4.0477953  -1.5210000  -3.3100000   2.8910000
  -2.3183126  -2.6493127   3.2314175  -0.5923911  -2.7452631   2.8081879
  -1.8880000  -3.7450000   1.4930000  -3.1190000  -4.3390000   1.2460000
  -3.8117812  -4.4819690   2.0752852  -3.4760000  -4.7520000  -0.0440000
  -4.4496019  -5.2061078  -0.2283533  -2.5870000  -4.5810000  -1.0840000
  -2.8541062  -4.9047862  -2.0899407  -1.3470000  -3.9940000  -0.8480000
  -0.6450744  -3.8550810  -1.6702543  -1.0020000  -3.5830000   0.4420000
  -0.0279538  -3.1303357   0.6275502  -0.5110000  -5.5840000   3.2820000
  -1.0010000  -6.6900000   3.0310000   0.7960000  -5.3300000   3.1170000
   1.1822047  -4.4176493   3.3133707   1.6870000  -6.3600000   2.5840000
   1.3704964  -6.6335213   1.5774660   3.1280000  -5.8520000   2.5220000
   3.3311482  -5.5726112   3.5558143   3.7224976  -6.7269623   2.2591055
   3.4950000  -4.6930000   1.6010000   3.1006157  -3.7581059   1.9991644
   5.0190000  -4.6100000   1.5220000   5.4141082  -5.5444281   1.1234622
   5.3051103  -3.7866596   0.8675137   5.4262602  -4.4396323   2.5186014
   2.9010000  -4.8860000   0.2150000   1.8149408  -4.9415342   0.2891004
   3.1787840  -4.0449358  -0.4202545   3.2827711  -5.8101081  -0.2190207
   1.6200000  -7.6370000   3.4110000   1.5110000  -8.7380000   2.8590000
   1.7130000  -7.5150000   4.7390000   1.8551155  -6.6173580   5.1796147
   1.6730000  -8.7030000   5.5860000   2.4547811  -9.3920124   5.2663447
   1.9300000  -8.3140000   7.0440000   1.1501191  -7.6312831   7.3813181
   1.9226518  -9.2090153   7.6660883   2.9004928  -7.8243083   7.1242812
   0.3420000  -9.4330000   5.4550000   0.2990000 -10.6670000   5.4740000
  -0.7590000  -8.6870000   5.3260000  -0.7308711  -7.6795417   5.3918477
  -2.0580000  -9.3340000   5.1480000  -2.2193595 -10.0521948   5.9519021
  -3.1980000  -8.3050000   5.1730000  -4.1374109  -8.8419218   5.3046109
  -3.0375989  -7.6409078   6.0223251  -3.2540000  -7.5390000   3.9770000
  -3.9772875  -6.9102795   4.0332632  -2.1210000 -10.1340000   3.8550000
  -2.9530000 -11.0390000   3.7430000  -1.2640000  -9.8210000   2.8770000
  -0.6836911  -9.0012931   2.9838715  -1.1640000 -10.5820000   1.6370000
  -2.0774545 -11.1551456   1.4782416  -0.9680000  -9.6400000   0.4540000
  -0.0127933  -9.1334076   0.5919985  -0.9282234 -10.2497684  -0.4486075
  -2.0620000  -8.6180000   0.3200000  -2.1542902  -8.0741405   1.2601065
  -1.7998263  -7.9225015  -0.4772759  -3.3790000  -9.2860000  -0.0070000
  -3.1856166 -10.3165745  -0.3046879  -4.0076755  -9.2774281   0.8833893
  -4.0870000  -8.5610000  -1.1310000  -4.3741747  -7.5720337  -0.7738210
  -3.3917623  -8.4580915  -1.9641588  -5.3000000  -9.2960000  -1.5850000
  -5.9445408  -9.3910877  -0.8132324  -5.7440269  -8.7831069  -2.3332518
  -5.0340638 -10.2122672  -1.9164083  -0.0270000 -11.5940000   1.6810000
   0.3970000 -12.0890000   0.6290000   0.4800000 -11.8860000   2.8800000
   0.1438776 -11.3418218   3.6616592   1.5480000 -12.8570000   3.1190000
   1.8167435 -12.8459640   4.1752927   1.1090000 -14.2730000   2.7410000
   0.2924145 -14.2357212   2.0199607   1.9655726 -14.7769635   2.2933347
   0.6530000 -15.0720000   3.9500000   1.2210000 -16.1120000   4.2810000
  -0.3650000 -14.5620000   4.6370000  -0.7140671 -15.0469018   5.4513231
  -0.7844324 -13.6920921   4.3413018   2.8370000 -12.4750000   2.4000000
   3.6260000 -13.3440000   2.0110000   3.0850000 -11.1750000   2.2550000
   2.4059395 -10.5154214   2.6070400   4.2620000 -10.6560000   1.5720000
   4.8244414 -11.4729352   1.1199207   3.8340000  -9.6840000   0.4650000
   3.3653054 -10.2534705  -0.3375759   3.1127882  -8.9792581   0.8788749
   5.1230000  -8.6820000  -0.3170000   4.3124405  -8.0423412  -1.1552888
   5.1940000  -9.9640000   2.5680000   4.7320000  -9.2820000   3.4870000
   6.4950000 -10.1440000   2.3700000   6.7959067 -10.8577605   1.7218485
   7.5130000  -9.3970000   3.0960000   7.0401356  -8.6684767   3.7545987
   8.4390000 -10.3090000   3.9210000   9.2491083  -9.7135881   4.3420814
   7.6500000 -10.9640000   5.0500000   6.8399425 -11.5599981   4.6296504
   8.3111011 -11.6080073   5.6299143   7.2342795 -10.1927689   5.6984429
   9.0920000 -11.3730000   3.0370000   8.2990683 -12.0288564   2.6775386
   9.5483335 -10.8583035   2.1914548  10.1440000 -12.1980000   3.7540000
   9.6882836 -12.7133947   4.5994530  10.5631091 -12.9313711   3.0650779
  10.9375481 -11.5428409   4.1133713   8.2920000  -8.5910000   2.0650000
   8.4440000  -9.0020000   0.9090000   8.7290000  -7.4090000   2.4780000
   8.5272473  -7.1514076   3.4335320   9.4180000  -6.4440000   1.6340000
   9.0950010  -6.5452420   0.5978915   9.0860000  -5.0280000   2.1140000
   8.0062226  -4.8831920   2.1487931   9.5058971  -4.8665163   3.1068290
   9.6330000  -3.9510000   1.2390000  10.9320000  -3.5070000   1.3500000
  11.1480000  -2.5510000   0.4660000  12.1200880  -2.0622711   0.4005174
  10.0350000  -2.3650000  -0.2240000   9.9064379  -1.7027032  -0.9756213
   9.0690000  -3.2220000   0.2450000   8.0714244  -3.2115725  -0.1941303
  10.9310000  -6.6670000   1.6180000  11.5470000  -6.6610000   0.5470000
  11.5340000  -6.8410000   2.7980000  10.9279511  -6.6679653   3.5872168
  12.9410000  -7.1490000   3.0580000  13.0590371  -7.3606982   4.1207089
  13.4490000  -8.3600000   2.2560000  13.4857030  -8.0499492   1.2116722
  14.4593840  -8.5667702   2.6088035  12.6010000  -9.6170000   2.3820000
  12.2339028  -9.6944352   3.4053984  11.7556165  -9.5429270   1.6979371
  13.4200000 -10.8520000   2.0430000  14.3589937 -10.8188623   2.5955321
  12.8597331 -11.7409682   2.3327171  13.7190000 -10.9320000   0.6180000
  13.0000764 -10.6245210  -0.0213003  14.8600000 -11.3830000   0.1170000
  15.8560000 -11.7710000   0.9000000  15.7524260 -11.7255947   1.9036487
  16.7141901 -12.1103701   0.4895888  15.0080000 -11.4410000  -1.2030000
  14.2547038 -11.1428754  -1.8061306  15.8730445 -11.7829198  -1.5965575
  13.9220000  -5.9950000   2.8340000  15.1170000  -6.2010000   3.0330000
  13.4750000  -4.8030000   2.4430000  12.5308068  -4.6998324   2.0995542
  14.3590000  -3.6390000   2.4010000  15.1537260  -3.7593771   3.1372195
  14.9930000  -3.4780000   1.0200000  15.3377727  -4.4632654   0.7061800
  14.2261077  -3.1253189   0.3303680  16.1630000  -2.5070000   1.0160000
  16.6660000  -2.1120000   2.1030000  16.5800000  -2.1210000  -0.0950000
  13.6100000  -2.3800000   2.8280000  13.6950000  -1.3240000   2.1970000
  12.9010000  -2.4710000   3.9520000  12.7971063  -3.3543022   4.4306259
  12.2020000  -1.3110000   4.4850000  11.7295458  -0.7541523   3.6757987
  11.1210000  -1.7600000   5.4640000  10.4977665  -2.4246836   4.8657735
  11.6444217  -2.3399402   6.2241310  10.2440000  -0.7130000   6.1390000
  10.8723224  -0.0140303   6.6910446   9.4510000   0.0430000   5.0840000
   8.8220485  -0.6552884   4.5318115   8.8237722   0.7919059   5.5675556
  10.1380770   0.5349317   4.3955025   9.3040000  -1.4050000   7.1250000
   9.8901930  -1.9314599   7.8782046   8.6739358  -0.6600608   7.6109896
   8.6763503  -2.1178338   6.5901890  13.2110000  -0.3740000   5.1470000
  14.0460000  -0.8080000   5.9510000  13.1370000   0.9030000   4.7820000
  12.3478428   1.1387786   4.1974158  14.0850000   1.9600000   5.1250000
  14.1912525   2.0528382   6.2058287  15.4700000   1.7140000   4.5160000
  15.3812117   1.6279197   3.4330379  16.1284249   2.5474133   4.7609474
  15.8866303   0.7914888   4.9203409  13.5100000   3.2660000   4.6090000
  12.6960000   3.2690000   3.6850000  13.9430000   4.3820000   5.2000000
  14.5863301   4.3669198   5.9784590  13.4120000   5.6720000   4.7650000
  12.3261123   5.6294181   4.8494618  13.9290000   6.7950000   5.6670000
  15.0142899   6.8560483   5.5862605  13.4882614   7.7425652   5.3572099
  13.6532056   6.5873783   6.7008907  13.7450000   5.9650000   3.3030000
  12.9840000   6.6670000   2.6270000  14.8640000   5.4390000   2.7950000
  15.5166382   4.9456678   3.3872720  15.2000000   5.6070000   1.3850000
  15.1619956   6.6628679   1.1170490  16.6110000   5.0840000   1.1120000
  16.8526782   5.2990327   0.0711101  17.2998411   5.6222496   1.7630648
  16.7390000   3.5930000   1.3630000  16.4630514   3.4021024   2.4000686
  16.0409648   3.0799214   0.7014872  18.1510000   3.0770000   1.1100000
  18.3977865   3.1294771   0.0496031  18.8806933   3.6509460   1.6811682
  18.2150000   1.6880000   1.5350000  18.0381258   0.9724469   0.8444939
  18.5260000   1.3140000   2.7680000  18.9180000   2.1950000   3.6770000
  18.9835378   3.1728349   3.4327791  19.1494228   1.8845648   4.6098307
  18.4070000   0.0320000   3.1070000  18.0828510  -0.6393733   2.4256151
  18.6414193  -0.2632728   4.0439953  14.2140000   4.9040000   0.4530000
  14.1800000   5.2230000  -0.7450000  13.4370000   3.9410000   0.9580000
  13.5764931   3.6415122   1.9124360  12.4510000   3.2320000   0.1470000
  12.5613976   3.5135033  -0.9002189  12.6480000   1.7220000   0.2700000
  12.7532935   1.4161123   1.3108868  11.7546085   1.2637587  -0.1542246
  13.8550000   1.2340000  -0.5020000  14.2680000   1.8570000  -1.4820000
  14.4740000   0.1500000  -0.0250000  15.2847084  -0.2162734  -0.5032211
  14.1283065  -0.2980646   0.8115613  11.0220000   3.6270000   0.4950000
  10.0840000   2.8810000   0.2030000  10.8420000   4.7770000   1.1350000
  11.6513310   5.2296803   1.5352039   9.5360000   5.4030000   1.3210000
   8.7463987   4.7827283   0.8968633   9.2260000   5.6860000   2.8020000
   9.9659058   6.3829006   3.1956615   7.8170000   6.2990000   2.9420000
   7.0764590   5.6024318   2.5489449   7.6083698   6.4950792   3.9937258
   7.7693715   7.2331556   2.3823716   9.3590000   4.4190000   3.6470000
  10.4027111   4.1102092   3.5885527   9.1203626   4.6988924   4.6730663
   8.4750000   3.2800000   3.2200000   8.7133878   2.9992239   2.1941170
   8.6388664   2.4260569   3.8772886   7.4310387   3.5879082   3.2786285
   9.5440000   6.6910000   0.5210000  10.4570000   7.5130000   0.6690000
   8.5540000   6.8580000  -0.3490000   7.8477905   6.1440598  -0.4569674
   8.4770000   8.0340000  -1.1930000   9.3904975   8.6201837  -1.0929493
   8.3120000   7.6320000  -2.6610000   7.3018354   7.2297048  -2.7373239
   8.3832452   8.5475378  -3.2482093   9.3120000   6.6040000  -3.1960000
   9.1765329   5.6506964  -2.6851559   9.0630000   6.4210000  -4.6830000
   9.1987429   7.3738487  -5.1946171   9.7669664   5.6910738  -5.0826747
   8.0443314   6.0665545  -4.8404264  10.7520000   7.0320000  -2.9750000
  10.9348262   7.1566170  -1.9076928  11.4230022   6.2700001  -3.3715016
  10.9333421   7.9770590  -3.4869351   7.3150000   8.9150000  -0.7550000
   6.3580000   8.4550000  -0.1270000   7.4120000  10.1950000  -1.1010000
   8.2296642  10.5035412  -1.6072874   6.4110000  11.1860000  -0.7380000
   5.6161000  10.7079338  -0.1655615   7.0240000  12.3010000   0.1130000
   7.6177310  11.7679210   0.8555695   7.6848321  12.8789691  -0.5330284
   6.0490000  13.2460000   0.8220000   5.4477063  13.7465762   0.0630730
   5.1390000  12.5090000   1.7810000   5.7395920  12.0085176   2.5405429
   4.4649012  13.2185137   2.2608769   4.5562446  11.7684671   1.2331793
   6.8450000  14.3080000   1.5600000   7.4505841  14.8690078   0.8482152
   6.1610895  14.9871595   2.0690286   7.4954868  13.8311917   2.2932256
   5.7780000  11.7680000  -1.9920000   6.4830000  12.1310000  -2.9410000
   4.4520000  11.8600000  -1.9850000   3.9125115  11.4788455  -1.2209498
   3.7370000  12.4400000  -3.1130000   4.4240487  12.9345084  -3.7996765
   2.9810000  11.3490000  -3.8780000   3.6687462  10.5308765  -4.0919613
   1.8080000  10.8250000  -3.0630000   1.1195387  11.6425194  -2.8490309
   1.2883645  10.0517462  -3.6288239   2.1745243  10.4047903  -2.1264188
   2.5100000  11.8810000  -5.1230000   2.0359518  11.1985145  -5.6037205
   2.7960000  13.5430000  -2.6350000   2.8580000  13.9520000  -1.4690000
   1.9410000  14.0420000  -3.5300000   1.9443278  13.7047719  -4.4820323
   1.0180000  15.1150000  -3.1800000   1.5769580  15.9969209  -2.8671412
   0.1500000  15.4880000  -4.3880000  -0.4199724  14.6173534  -4.7123534
  -0.5357506  16.2949255  -4.1297028   0.9330000  15.9550000  -5.5770000
   1.0210000  15.2240000  -6.7430000   1.7730000  15.8760000  -7.6140000
   1.9690163  15.4577025  -8.6012709   2.1700000  17.0070000  -7.0570000
   2.7554295  17.7083795  -7.4876263   1.6560000  17.0820000  -5.7840000
   1.8703507  17.9495849  -5.1599396   0.1310000  14.7160000  -2.0040000
  -0.2010000  13.5420000  -1.8100000  -0.2540000  15.7130000  -1.2110000
   0.0416083  16.6618933  -1.3907680  -1.1070000  15.4650000  -0.0690000
  -1.4835528  16.4291674   0.2725967  -1.9399251  14.8507288  -0.4110615
  -0.4240000  14.7690000   1.0820000  -1.0990000  14.1360000   1.8970000
   0.9060000  14.8580000   1.1580000   1.4024100  15.3019937   0.3986937
   1.6880000  14.2570000   2.2420000   2.7497078  14.3245281   2.0046906
   1.4370000  14.9760000   3.5680000   0.4043562  15.3240497   3.5926448
   1.6025365  14.2730861   4.3844617   2.3550000  16.1680000   3.7610000
   3.5700000  16.0640000   3.5910000   1.7780000  17.3100000   4.1150000
   2.3430540  18.1350575   4.2567530   0.7766224  17.3485143   4.2409379
   1.4160000  12.7590000   2.3710000   1.3930000  12.2070000   3.4730000
   1.2040000  12.1000000   1.2300000   1.1548240  12.6214064   0.3663933
   0.9990000  10.6560000   1.1790000   0.6404066  10.2343460   2.1179984
   0.0330000  10.2760000   0.0450000   0.5114334  10.4867087  -0.9114537
  -0.3300000   8.7860000   0.1180000  -0.8089297   8.5746021   1.0740533
  -1.0143978   8.5380701  -0.6933144   0.5752480   8.1859946   0.0251629
  -1.1920000  11.1960000   0.0580000  -0.8602787  12.1668764   0.4260499
  -1.5298147  11.2951521  -0.9735763  -2.3210000  10.7000000   0.9070000
  -1.9840526  10.6010317   1.9388777  -3.1484967  11.4080333   0.8618639
  -2.6535872   9.7293057   0.5392525   2.3450000   9.9770000   0.9840000
   3.0920000  10.3180000   0.0590000   2.6440000   9.0060000   1.8410000
   2.0197980   8.8175054   2.6123242   3.8640000   8.2220000   1.7340000
   4.5626008   8.7178169   1.0600403   4.5420000   8.0450000   3.1000000
   5.3777897   7.3537141   2.9919279   5.0480000   9.3680000   3.6200000
   4.2126529  10.0597092   3.7287801   5.5248549   9.2197788   4.5888854
   5.7725371   9.7815851   2.9185060   3.6110000   7.4990000   4.0360000
   4.0400763   7.3905169   4.8878951   3.5680000   6.8540000   1.1390000
   2.5720000   6.2130000   1.4840000   4.4560000   6.4000000   0.2610000
   5.2759496   6.9529745   0.0560582   4.2750000   5.1430000  -0.4520000
   3.4608227   4.5770426   0.0006663   3.9320000   5.4020000  -1.9280000
   4.6991241   6.0633347  -2.3308105   3.9708147   4.4436181  -2.4457815
   2.5520000   6.0370000  -2.1320000   1.7882544   5.3022938  -1.8770485
   2.4623988   6.8981811  -1.4698514   2.3620000   6.4880000  -3.5850000
   2.9235035   7.4111343  -3.7286520   2.7664173   5.7124052  -4.2353836
   0.8860000   6.7280000  -3.9320000   0.5239613   7.5472266  -3.3107944
   0.8304904   7.0166440  -4.9816202   0.0430000   5.5230000  -3.7040000
   0.0939566   5.2556257  -2.7313674  -0.9150971   5.7317126  -3.9460515
   0.3780422   4.7638928  -4.2798490   5.5410000   4.3070000  -0.3470000
   6.6440000   4.7970000  -0.6300000   5.3740000   3.0390000   0.0270000
   4.4690197   2.7163031   0.3384107   6.4840000   2.0950000   0.0340000
   7.3784436   2.5205771   0.4889219   6.0850000   0.8210000   0.7870000
   5.1754594   0.4185240   0.3410747   7.1900000  -0.2190000   0.7090000
   8.0997983   0.1826099   1.1551805   6.8853869  -1.1148227   1.2501223
   7.3786360  -0.4719110  -0.3343368   5.7390000   1.1560000   2.2460000
   6.6770863   1.2083105   2.7985925   5.2605774   2.1353859   2.2498041
   4.8160000   0.1370000   2.9070000   5.2939717  -0.8426090   2.9039857
   4.6161332   0.4400208   3.9347796   3.8774630   0.0844649   2.3551954
   6.8660000   1.7770000  -1.4080000   5.9950000   1.5010000  -2.2440000
   8.1630000   1.7940000  -1.7110000   8.8545384   2.0524984  -1.0217594
   8.6160000   1.4980000  -3.0720000   7.7738620   1.1302946  -3.6582555
   9.1880000   2.7440000  -3.7630000   9.2790058   2.5595018  -4.8334100
   8.5240557   3.5922059  -3.5961925  10.8340000   3.2740000  -3.2010000
  10.9290528   4.3203981  -4.0164228   9.6620000   0.3820000  -3.0690000
  10.1100000  -0.1000000  -2.0180000  10.0610000  -0.0040000  -4.2870000
   9.5770872   0.3907151  -5.0808059  11.0890000  -1.0150000  -4.5340000
  11.2037276  -1.1534967  -5.6090607  12.4430000  -0.6040000  -3.9460000
  12.5629356   0.4606750  -4.1464539  12.4427182  -0.7726624  -2.8691282
  13.5960000  -1.3730000  -4.5800000  13.3500000  -2.4800000  -5.1140000
  14.7460000  -0.9120000  -4.5260000  10.7210000  -2.3950000  -4.0170000
  11.1500000  -2.8060000  -2.9330000   9.9950000  -3.1510000  -4.8310000
   9.6500002  -2.7543647  -5.6934123   9.5820000  -4.4980000  -4.4790000
   9.6984081  -4.6627147  -3.4078243   8.1080000  -4.6890000  -4.8460000
   7.9536420  -4.2812090  -5.8449891   7.7913551  -5.7318187  -4.8268885
   7.1810000  -3.9410000  -3.9280000   7.0860000  -2.5590000  -3.9850000
   7.6710689  -2.0184949  -4.7290756   6.2590000  -1.8620000  -3.1100000
   6.1891870  -0.7759929  -3.1717693   5.5250000  -2.5490000  -2.1610000
   4.8726949  -2.0080087  -1.4754882   5.6200000  -3.9250000  -2.0830000
   5.0441763  -4.4710653  -1.3357785   6.4560000  -4.6170000  -2.9640000
   6.5417439  -5.7014635  -2.8955389  10.4730000  -5.5630000  -5.1100000
  10.0650000  -6.7240000  -5.2130000  11.7100000  -5.1960000  -5.4730000
  12.0388608  -4.2546211  -5.3125146  12.6130000  -6.1430000  -6.1080000
  12.1463193  -6.4705839  -7.0369764  13.5389140  -5.6141033  -6.3339445
  12.9340000  -7.3610000  -5.2600000  13.1470000  -8.4540000  -5.7910000
  12.9750000  -7.1990000  -3.9370000  12.8594530  -6.2758160  -3.5439611
  13.2340000  -8.3090000  -3.0290000  13.6016300  -9.1692011  -3.5884653
  14.2910000  -7.9100000  -1.9940000  13.8801832  -7.0548684  -1.4572704
  14.4417180  -8.7361813  -1.2991557  15.6260000  -7.5230000  -2.6200000
  15.4892099  -6.6521927  -3.2611583  16.6120000  -7.1940000  -1.5310000
  16.7496695  -8.0645344  -0.8896609  17.5673616  -6.9169867  -1.9767001
  16.2338866  -6.3619309  -0.9370373  16.1450000  -8.6510000  -3.4900000
  15.4268925  -8.8585985  -4.2832994  17.0988591  -8.3612136  -3.9307696
  16.2829065  -9.5453020  -2.8822956  11.9950000  -8.8030000  -2.2970000
  12.1130000  -9.6780000  -1.4310000  10.8190000  -8.2650000  -2.6010000
  10.7427699  -7.5246895  -3.2838094   9.6090000  -8.6910000  -1.9040000
   9.7763095  -8.6472417  -0.8278067   8.4430000  -7.7710000  -2.2540000
   8.2574373  -7.8110282  -3.3273426   7.5503576  -8.0953585  -1.7191342
   8.6871238  -6.7485048  -1.9658918   9.2810000 -10.1410000  -2.2510000
   9.4330000 -10.5710000  -3.3980000   8.8550000 -10.9050000  -1.2470000
   8.7529446 -10.5000259  -0.3273914   8.5570000 -12.3210000  -1.4150000
   8.4912724 -12.5446256  -2.4797867   9.6420000 -13.2260000  -0.7860000
   9.5941435 -13.0629727   0.2906759   9.3554823 -14.2534345  -1.0104682
  11.0600000 -12.9780000  -1.2730000  11.3161762 -11.9348494  -1.0877664
  11.7392581 -13.6229142  -0.7155091  11.1860000 -13.2750000  -2.7630000
  10.8986931 -14.3096677  -2.9501269  10.5273577 -12.6090617  -3.3205087
  12.5540000 -13.0780000  -3.2300000  13.2406345 -13.7554370  -2.9304812
  12.9450000 -12.0880000  -4.0210000  12.0820000 -11.2070000  -4.5070000
  11.1020331 -11.2836532  -4.2748595  12.4083923 -10.4631425  -5.1072031
  14.2350000 -11.9690000  -4.3230000  14.9010522 -12.6299084  -3.9492693
  14.5424896 -11.2182840  -4.9246430   7.2150000 -12.6490000  -0.7830000
   6.8420000 -12.0700000   0.2390000   6.4990000 -13.5830000  -1.4000000
   6.7720073 -13.8773649  -2.3267770   5.3100000 -14.1790000  -0.8090000
   4.8045478 -13.4579285  -0.1666035   4.3460000 -14.6040000  -1.9210000
   4.0437218 -13.6928750  -2.4373123   4.8862677 -15.2506239  -2.6124393
   3.1120000 -15.3290000  -1.4090000   3.2400000 -16.3750000  -0.7390000
   2.0000000 -14.8430000  -1.7060000   5.7740000 -15.3660000   0.0320000
   6.4060000 -16.2850000  -0.4940000   5.4940000 -15.3400000   1.3370000
   4.9852491 -14.5767093   1.7596810   5.9890000 -16.4050000   2.2030000
   6.6099353 -17.0999536   1.6376876   6.7970000 -15.8420000   3.3880000
   7.0457105 -16.6560374   4.0688719   8.0850000 -15.1850000   2.8870000
   7.8370698 -14.3705086   2.2063863   8.6462177 -14.7914948   3.7345194
   8.6904768 -15.9243400   2.3627163   5.9630000 -14.8410000   4.1890000
   5.8214193 -13.9619799   3.5602081   4.9971942 -15.3074039   4.3833862
   6.6010000 -14.4230000   5.5110000   7.5667025 -13.9560644   5.3173776
   5.9501067 -13.7125020   6.0205387   6.7424795 -15.3014894   6.1405552
   4.8410000 -17.2680000   2.7170000   4.9220000 -17.8140000   3.8250000
   3.7730000 -17.4040000   1.9190000   3.7262843 -16.9193171   1.0341274
   2.6240000 -18.2150000   2.3280000   2.1281708 -17.7459518   3.1778508
   1.6130000 -18.3450000   1.1810000   2.2039653 -18.3746550   0.2655876
   1.1204900 -19.3064827   1.3262069   0.5610000 -17.2470000   1.0710000
  -0.2772266 -17.5016186   1.7195726   1.0029136 -16.3069812   1.4014227
   0.0660000 -17.0990000  -0.3650000   0.9219100 -17.1811161  -1.0349060
  -0.6360339 -17.9065485  -0.5726374  -0.6220000 -15.7610000  -0.5840000
  -0.1391159 -15.0259468   0.0599102  -0.4810093 -15.4778738  -1.6271013
  -2.0770000 -15.8100000  -0.2760000  -2.2078534 -16.0719143   0.6906323
  -2.4859465 -14.9005909  -0.4367413  -2.5247122 -16.4907518  -0.8728499
   3.0450000 -19.6070000   2.7910000   2.6600000 -20.0550000   3.8770000
   3.8410000 -20.3030000   1.9770000   4.2531359 -19.8785122   1.1584321
   4.0680000 -21.7270000   2.2070000   3.1003989 -22.1926013   2.3942504
   4.6830000 -22.3630000   0.9610000   4.0280365 -22.1954889   0.1059784
   5.6565884 -21.9134124   0.7658163   4.8679049 -23.8624035   1.1456227
   4.5365304 -24.4070597   2.1963280   5.3994923 -24.5300237   0.1190156
   5.5436797 -25.5271957   0.1894270   5.6550453 -24.0348864  -0.7233813
   4.9420000 -21.9870000   3.4350000   4.6620000 -22.9040000   4.2160000
   6.0020000 -21.1950000   3.6310000   6.1335666 -20.3718815   3.0606794
   7.0250000 -21.5230000   4.6190000   6.8866506 -22.5444172   4.9734934
   8.4240000 -21.4060000   3.9910000   8.5292072 -20.3944888   3.5987300
   9.1605453 -21.5684074   4.7779084   8.6490000 -22.4070000   2.8740000
   8.4570000 -22.0390000   1.6940000   9.0160000 -23.5640000   3.1750000
   6.9880000 -20.6740000   5.8830000   7.6780000 -21.0150000   6.8520000
   6.2210000 -19.5830000   5.9020000   5.6812714 -19.3930751   5.0697014
   6.1820000 -18.6080000   6.9910000   5.4407846 -17.8647287   6.6973220
   5.7390000 -19.2460000   8.3180000   4.7721263 -19.7309786   8.1836488
   6.4759469 -19.9861423   8.6297669   5.6282713 -18.2324116   9.3206359
   5.3516862 -18.6307463  10.1491466   7.5120000 -17.8840000   7.1770000
   7.6510000 -17.0800000   8.1070000   8.4880000 -18.1380000   6.3110000
   8.4081612 -18.9342991   5.6948564   9.7340000 -17.3830000   6.3060000
   9.5168262 -16.3241777   6.4468194  10.6740000 -17.8480000   7.4370000
  11.3542896 -17.0340623   7.6876205  10.0431617 -18.0715223   8.2973377
  11.5040000 -19.0950000   7.1000000  11.8120000 -19.4020000   5.9490000
  11.8940000 -19.8100000   8.1490000  12.4441449 -20.6456002   8.0103902
  11.6386609 -19.5148744   9.0805598  10.3490000 -17.4750000   4.9140000
   9.8180000 -18.1340000   4.0160000  11.4740000 -16.7900000   4.7420000
  11.8068730 -16.1826587   5.4771405  12.2350000 -16.8560000   3.5050000
  11.9762175 -17.7681595   2.9673236  11.9310000 -15.6520000   2.6030000
  10.8594508 -15.6698269   2.4040937  12.1804652 -14.7530656   3.1667235
  12.6860000 -15.6510000   1.2940000  12.2980000 -16.4830000   0.2520000
  11.4392402 -17.1389733   0.3945838  12.9790000 -16.4890000  -0.9480000
  12.6621617 -17.1432402  -1.7602100  14.0680000 -15.6610000  -1.1150000
  14.7540000 -15.6610000  -2.3070000  14.3891844 -16.2736974  -2.9497372
  14.4760000 -14.8280000  -0.0930000  15.3374583 -14.1734858  -0.2256698
  13.7870000 -14.8270000   1.1010000  14.1040836 -14.1721945   1.9126574
  13.7090000 -16.9000000   3.8780000  14.1690000 -16.0780000   4.6780000
  14.4380000 -17.8700000   3.3320000  13.9808726 -18.5810422   2.7792316
  15.8760000 -17.9810000   3.5490000  16.2185588 -17.3022039   4.3300176
  16.2960000 -19.4100000   3.9220000  15.8329113 -20.1097673   3.2263177
  17.8210000 -19.5540000   3.8520000  18.2848096 -18.8548224   4.5477962
  18.1029420 -20.5724626   4.1191014  18.1608342 -19.3372206   2.8392705
  15.7700000 -19.7770000   5.3090000  14.6817541 -19.7153335   5.3134846
  16.0768539 -20.7929888   5.5574089  16.1756617 -19.0848271   6.0468591
  16.5690000 -17.5150000   2.2770000  16.3830000 -18.1090000   1.2070000
  17.3610000 -16.4520000   2.3910000  17.4936843 -16.0159618   3.2923129
  18.0140000 -15.8550000   1.2310000  17.3346599 -15.8669347   0.3786774
  18.4060000 -14.4090000   1.5220000  17.5199425 -13.8988440   1.8998124
  19.1807151 -14.4064800   2.2887530  18.9150000 -13.6900000   0.2870000
  18.2740000 -13.8170000  -0.7800000  19.9610000 -13.0100000   0.3800000
  19.2420000 -16.6660000   0.8340000  20.2010000 -16.7760000   1.6080000
  19.2200000 -17.2160000  -0.3790000  18.3682744 -17.1623571  -0.9191714
  20.3490000 -17.9430000  -0.9410000  20.9408885 -18.3301263  -0.1116024
  19.8480000 -19.1250000  -1.7790000  19.2262299 -19.7720462  -1.1602655
  19.2611050 -18.7528266  -2.6187269  21.0404533 -19.9173584  -2.3042119
  21.6624857 -19.2710509  -2.9234560  21.6276099 -20.2902732  -1.4649957
  20.5420984 -21.0931192  -3.1377909  19.9203266 -21.7401650  -2.5190579
  19.9552052 -20.7209446  -3.9775182  21.7345527 -21.8854785  -3.6630007
  22.3565861 -21.2391716  -4.2822441  22.3217057 -22.2583943  -2.8237843
  21.2541707 -23.0188331  -4.4665176  20.7104368 -22.6734765  -5.2444521
  22.0439266 -23.5436099  -4.8143608  20.6781082 -23.6180680  -3.8927854
  21.2580000 -17.0630000  -1.7920000  22.2400000 -17.5660000  -2.3470000
  20.9590000 -15.7670000  -1.9020000  20.1796718 -15.3862767  -1.3845092
  21.7220000 -14.8750000  -2.7480000  21.9399997 -15.3967662  -3.6798451
  21.1073820 -13.9995470  -2.9575855  23.0270000 -14.4230000  -2.1180000
  23.3600000 -14.7520000  -0.9780000  23.7820000 -13.6430000  -2.8960000
  23.4487089 -13.4201514  -3.8230140  25.0940000 -13.1430000  -2.4930000
  25.1868676 -13.1951191  -1.4082150  26.2120000 -13.9740000  -3.1190000
  26.0341125 -14.0417770  -4.1922481  27.1640342 -13.4743559  -2.9398725
  26.2870000 -15.3770000  -2.5510000  26.7720000 -15.5850000  -1.4380000
  25.8090000 -16.3520000  -3.3160000  25.8339400 -17.3064644  -2.9866438
  25.4227960 -16.1344204  -4.2235276  25.2320000 -11.6710000  -2.8840000
  26.1670000 -11.2600000  -3.5680000  24.2860000 -10.8520000  -2.4380000
  23.5321694 -11.2246201  -1.8785422  24.2610000  -9.4380000  -2.7740000
  24.9710431  -9.2521658  -3.5798559  22.8650000  -9.0180000  -3.2450000
  22.1443083  -9.1896286  -2.4454707  22.8721531  -7.9597362  -3.5060112
  22.5838946  -9.6053874  -4.1191024  24.6950000  -8.5960000  -1.5810000
  24.8820000  -9.0910000  -0.4650000  24.8860000  -7.3070000  -1.8480000
  24.8928848  -6.9785990  -2.8030941  25.1150000  -6.3410000  -0.7850000
  25.8643056  -6.7228544  -0.0915827  25.6170000  -5.0210000  -1.3680000
  24.9186482  -4.7191884  -2.1485855  25.6068411  -4.2822134  -0.5666317
  27.0250000  -5.1170000  -1.9540000  27.6810294  -5.5206325  -1.1827627
  26.9895160  -5.8065180  -2.7974500  27.5620000  -3.7670000  -2.4230000
  27.6504877  -3.7690083  -3.5094000  26.8763684  -2.9771033  -2.1162886
  28.8740000  -3.4960000  -1.8480000  28.9046594  -3.1572345  -0.8970020
  30.0200000  -3.6620000  -2.4990000  30.0430000  -4.0170000  -3.7760000
  29.1754686  -4.1662342  -4.2711954  30.9279486  -4.1366070  -4.2478685
  31.1690000  -3.4730000  -1.8510000  31.1579319  -3.2068879  -0.8767506
  32.0456441  -3.5967307  -2.3370911  23.8070000  -6.1280000  -0.0320000
  22.7370000  -6.0270000  -0.6380000  23.8930000  -6.0720000   1.2990000
  24.7903815  -6.0268721   1.7602692  22.6940000  -6.1100000   2.1240000
  21.8086753  -6.0791987   1.4889011  22.6540000  -7.3970000   2.9590000
  23.6080344  -7.3765089   3.4857805  21.8397849  -7.3247022   3.6800595
  22.5300000  -8.7080000   2.1800000  23.1560866  -8.6460601   1.2898989
  22.9720000  -9.8960000   3.0310000  22.3460293  -9.9588710   3.9211161
  22.8735074 -10.8145913   2.4525625  24.0124759  -9.7639086   3.3277526
  21.1030000  -8.8870000   1.6750000  20.8423023  -8.0564299   1.0190354
  21.0274202  -9.8234099   1.1222564  20.4173825  -8.9093440   2.5220705
  22.6240000  -4.9050000   3.0560000  23.6600000  -4.3750000   3.4730000
  21.4110000  -4.4520000   3.4050000  20.1030000  -5.0320000   3.0420000
  20.0360067  -6.0446580   3.4396632  20.0118500  -5.0618206   1.9562277
  19.1000000  -4.0860000   3.6820000  18.7408114  -4.5129575   4.6183706
  18.2584147  -3.9338016   3.0062254  19.8470000  -2.7890000   3.9160000
  19.4104432  -2.2852236   4.7783958  19.8607906  -2.1068695   3.0659368
  21.2690000  -3.2420000   4.2440000  22.0231799  -2.5175984   3.9365046
  21.4480000  -3.5640000   5.7240000  20.4920000  -3.5460000   6.5050000
  22.7020000  -3.8370000   6.1070000  23.4661200  -3.6702537   5.4679259
  23.0000000  -4.4700000   7.3990000  22.5347404  -5.4548232   7.4409043
  24.5200000  -4.6360000   7.5780000  24.9985393  -3.6597519   7.5002884
  24.8240000  -5.2440000   8.9450000  24.3461422  -6.2205367   9.0232884
  25.9018527  -5.3571364   9.0613368  24.4413572  -4.5890350   9.7277560
  25.0910000  -5.5640000   6.4950000  24.8950261  -5.1383929   5.5108482
  26.1665195  -5.6700607   6.6368043  24.6171594  -6.5429121   6.5678498
  22.3850000  -3.7040000   8.5710000  21.8260000  -4.3120000   9.4900000
  22.4870000  -2.3710000   8.5750000  22.9316327  -1.8653573   7.8221875
  22.0060000  -1.6110000   9.7350000  22.3627991  -2.0718762  10.6560791
  22.5240000  -0.1760000   9.6750000  22.3661042   0.1920743   8.6612498
  21.9351599   0.4192035  10.3729256  24.0100000  -0.0620000  10.0340000
  24.1890277  -0.6440986  10.9379973  24.5931353  -0.4786652   9.2127537
  24.4250000   1.3750000  10.2690000  24.3885059   1.9095997   9.3198054
  23.7255648   1.8312711  10.9695045  25.8470000   1.4500000  10.8440000
  25.8387257   0.9892223  11.8317834  26.5093974   0.8869217  10.1865263
  26.3330000   2.8510000  10.9550000  25.7195883   3.3728216  11.5645310
  27.2683326   2.8536671  11.3361114  26.3411494   3.2780127  10.0397444
  20.4860000  -1.6020000   9.8620000  19.9710000  -1.1430000  10.8890000
  19.7560000  -2.0880000   8.8540000  20.2162105  -2.3420109   7.9915708
  18.3080000  -2.2100000   8.9250000  17.9246899  -1.6114144   9.7513582
  17.6620000  -1.7070000   7.6070000  18.2118761  -2.0926875   6.7485242
  16.6208531  -2.0232248   7.5428513  17.6650000  -0.1860000   7.4800000
  16.6140000   0.6560000   7.7200000  15.6720955   0.1978913   8.0217485
  17.0010000   1.9640000   7.5160000  16.4074810   2.7731578   7.6304481
  18.3120000   1.9890000   7.1230000  19.1360000   3.0720000   6.7930000
  18.7151459   4.0764602   6.8381682  20.4270000   2.7990000   6.4320000
  21.0981819   3.6187735   6.1759019  20.9110000   1.4830000   6.3830000
  21.9408895   1.2747391   6.0930785  20.0910000   0.4040000   6.7030000
  20.5190804  -0.5976738   6.6643022  18.7640000   0.6530000   7.0790000
  17.8430000  -3.6350000   9.2090000  16.6410000  -3.8590000   9.3960000
  18.7590000  -4.5940000   9.2610000  19.7368434  -4.3414652   9.2731605
  18.4100000  -6.0120000   9.2700000  17.4649446  -6.1848899   8.7551421
  19.5080000  -6.7730000   8.5400000  20.4765156  -6.4064372   8.8801593
  19.4181770  -7.8333821   8.7758423  19.3930000  -6.5790000   7.0530000
  18.4585256  -7.0215335   6.7080036  19.3919384  -5.5114683   6.8328249
  20.7750000  -7.3620000   6.1910000  20.5310000  -9.1030000   6.5090000
  19.5646795  -9.4135208   6.1116331  21.3228459  -9.6755605   6.0260350
  20.5563946  -9.2836423   7.5836277  18.2510000  -6.5510000  10.6830000
  19.0230000  -6.2060000  11.5780000  17.2600000  -7.4290000  10.8600000
  16.5834401  -7.5969539  10.1291392  17.1080000  -8.1420000  12.1160000
  17.1097033  -7.4424607  12.9519073  15.7900000  -8.9200000  12.1320000
  15.7771926  -9.6311019  11.3060036  15.6964753  -9.4579692  13.0753677
  14.9563833  -8.2257704  12.0260385  18.2810000  -9.0980000  12.3120000
  18.8700000  -9.5860000  11.3420000  18.6620000  -9.3640000  13.5580000
  18.0970000  -8.8500000  14.8150000  17.0110752  -8.9422425  14.7960562
  18.3699831  -7.8022472  14.9406717  18.7300000  -9.7310000  15.8430000
  18.0425258 -10.5479746  16.0621594  18.8920189  -9.1412388  16.7452377
  20.0020000 -10.2300000  15.3080000  20.1656690 -11.2526030  15.6479918
  20.8463560  -9.6087949  15.6067754  19.8480000 -10.2060000  13.7730000
  20.7010897  -9.7114659  13.3084871  19.6870000 -11.5940000  13.1840000
  20.6650000 -12.1580000  12.6860000  18.4750000 -12.1520000  13.1880000
  17.6815443 -11.7219371  13.6414019  18.3000000 -13.4730000  12.5940000
  19.0708493 -14.1491302  12.9637817  16.9260000 -14.0490000  12.9600000
  16.9427899 -15.0978417  12.6637762  16.8418036 -13.9795978  14.0445249
  15.7340000 -13.3590000  12.3140000  16.0616592 -12.9553248  11.3559882
  14.9712648 -14.1192443  12.1455873  15.1540000 -12.2390000  13.1640000
  15.8270000 -11.8020000  14.1190000  14.0270000 -11.7980000  12.8660000
  18.4940000 -13.4280000  11.0760000  18.9120000 -14.4210000  10.4730000
  18.2310000 -12.2780000  10.4500000  17.7978552 -11.5050718  10.9348370
  18.5120000 -12.1310000   9.0230000  18.1526017 -13.0053970   8.4804486
  17.8090000 -10.8950000   8.4750000  18.2172387 -10.0104958   8.9639711
  17.9898631 -10.8323725   7.4019360  16.4100000 -10.9660000   8.7160000
  15.9845016 -10.1804558   8.3646152  20.0110000 -12.0480000   8.7630000
  20.5280000 -12.6720000   7.8280000  20.7270000 -11.2800000   9.5780000
  20.2783039 -10.7009084  10.2732870  22.1810000 -11.2070000   9.4490000
  22.5028343 -10.9648291   8.4361450  22.7520000 -10.1690000  10.4300000
  22.4307237 -10.4172143  11.4415689  24.2770000 -10.1710000  10.3660000
  24.5990591  -9.9223977   9.3547753  24.6714410  -9.4327358  11.0641999
  24.6510909 -11.1592967  10.6332542  22.1750000  -8.7790000  10.1680000
  22.5236426  -8.4527004   9.1881645  21.0885422  -8.8659844  10.1560582
  22.5900000  -7.7610000  11.2180000  23.6763831  -7.6731219  11.2302111
  22.1503139  -6.7925239  10.9796109  22.2412843  -8.0864074  12.1981058
  22.8110000 -12.5740000   9.6870000  23.6000000 -13.0640000   8.8690000
  22.4720000 -13.2110000  10.8070000  21.7373924 -12.8725191  11.4118816
  23.2270000 -14.3850000  11.2270000  24.2730270 -14.2786527  10.9395683
  23.1510000 -14.5410000  12.7490000  22.1125971 -14.7166587  13.0300030
  23.7663944 -15.3705513  13.0971874  23.6040000 -13.3170000  13.5110000
  24.6720000 -12.5550000  13.0530000  25.1676578 -12.8429011  12.1258883
  25.1120000 -11.4360000  13.7610000  25.9464158 -10.8432233  13.3862111
  24.4810000 -11.0770000  14.9510000  24.8152615 -10.2057210  15.5142424
  23.4220000 -11.8370000  15.4160000  22.9271378 -11.5598083  16.3467934
  22.9870000 -12.9530000  14.7000000  22.1543549 -13.5493105  15.0731164
  22.7730000 -15.6730000  10.5470000  23.5910000 -16.5760000  10.3490000
  21.4940000 -15.7820000  10.1820000  20.8690121 -15.0037502  10.3363268
  20.9420000 -17.0130000   9.6210000  21.7462655 -17.7193888   9.4154007
  19.9630000 -17.6590000  10.6100000  19.0910418 -17.0130727  10.7127916
  19.6532846 -18.6264414  10.2147360  20.5740000 -17.8690000  11.9800000
  20.0780000 -17.3480000  12.9800000  21.6560000 -18.6350000  12.0340000
  22.1043266 -18.8085307  12.9222512  22.0263405 -19.0410449  11.1866062
  20.2380000 -16.8130000   8.2790000  19.6380000 -17.7600000   7.7700000
  20.2740000 -15.6100000   7.7100000  20.6791404 -14.8437429   8.2284696
  19.6850000 -15.3270000   6.4000000  19.7566810 -14.2590441   6.1940118
  20.4120000 -16.0920000   5.2840000  20.2170052 -17.1567725   5.4118118
  20.0139952 -15.7629246   4.3241033  21.8120000 -15.8600000   5.3200000
  22.2359616 -16.3506609   4.6121100  18.1940000 -15.6440000   6.3670000
  17.6500000 -16.0040000   5.3220000  17.5250000 -15.5170000   7.5110000
  18.0384748 -15.2254590   8.3304186  16.1020000 -15.8150000   7.6550000
  15.7128175 -16.4117817   6.8300832  15.8300000 -16.5620000   8.9740000
  16.5545292 -16.2310938   9.7180818  14.4250000 -16.2870000   9.4790000
  13.6998519 -16.6180859   8.7356001  14.2612221 -16.8273260  10.4113761
  14.3037056 -15.2178558   9.6531265  16.0660000 -18.0590000   8.7970000
  17.1001220 -18.2315639   8.4988132  15.8693831 -18.5721456   9.7383411
  15.3973305 -18.4442460   8.0272160  15.3250000 -14.5070000   7.6030000
  15.6700000 -13.5470000   8.3090000  14.2800000 -14.4620000   6.7730000
  14.0632616 -15.2851205   6.2293122  13.4490000 -13.2790000   6.5960000
  13.7312883 -12.5274753   7.3333081  13.6150000 -12.6800000   5.2000000
  13.3803795 -13.4421518   4.4569138  12.8831912 -11.8746334   5.1372260
  14.9860000 -12.1310000   4.9370000  16.0110000 -12.9630000   4.5130000
  15.8065011 -14.0252082   4.3788607  17.2720000 -12.4670000   4.2620000
  18.0781754 -13.1337809   3.9560812  17.5100000 -11.1180000   4.4020000
  18.7660000 -10.6280000   4.1300000  19.3833873 -11.3100006   3.8555773
  16.5040000 -10.2650000   4.8080000  16.6954845  -9.1981089   4.9227934
  15.2490000 -10.7720000   5.0690000  14.4463618 -10.1050135   5.3836442
  11.9990000 -13.6650000   6.8150000  11.5490000 -14.6960000   6.3080000
  11.2780000 -12.8340000   7.5660000  11.6643473 -11.9301244   7.7980432
   9.9480000 -13.1630000   8.0580000   9.4751408 -13.8690687   7.3753798
  10.0060000 -13.7950000   9.4540000   8.9852104 -13.9966064   9.7787210
  10.8030000 -15.0850000   9.4630000  11.8240981 -14.8840969   9.1388144
  10.8171155 -15.4969394  10.4720618  10.3415015 -15.8025606   8.7846000
  10.6290000 -12.8600000  10.3450000  10.6743139 -13.2388984  11.2258990
   9.1220000 -11.8890000   8.1500000   9.6310000 -10.7790000   7.9680000
   7.8390000 -12.0470000   8.4970000   7.3690804 -12.9409246   8.4838186
   7.0670000 -10.8650000   8.8660000   7.0221316 -10.1900699   8.0112747
   5.6340000 -11.2180000   9.2880000   5.7128722 -11.8947214  10.1388387
   5.0478953 -10.3441525   9.5725556   4.8440000 -11.9410000   8.2360000
   4.4400000 -11.2790000   7.0870000   4.7192654 -10.2344932   6.9487383
   3.6880000 -11.9310000   6.1180000   3.3983364 -11.4064148   5.2075023
   3.3070000 -13.2460000   6.3090000   2.7134342 -13.7607484   5.5534779
   3.6830000 -13.9110000   7.4680000   3.3862950 -14.9480484   7.6248343
   4.4390000 -13.2520000   8.4290000   4.7204311 -13.7662164   9.3479548
   7.7470000 -10.1100000   9.9950000   7.7470000  -8.8740000  10.0180000
   8.3480000 -10.8450000  10.9310000   8.3462473 -11.8534037  10.8742709
   8.9500000 -10.2190000  12.1040000   8.2857609  -9.4572770  12.5122446
   9.1890000 -11.2850000  13.1760000   9.7948915 -12.0716336  12.7263309
   9.7470593 -10.8155079  13.9860908   7.8920000 -11.8930000  13.7330000
   8.1310176 -12.2576984  14.7319827   7.1472022 -11.1003866  13.8046899
   7.3340000 -13.0420000  12.8910000   8.0110000 -13.4990000  11.9470000
   6.1940000 -13.4770000  13.1620000  10.2410000  -9.4770000  11.7630000
  10.5710000  -8.4840000  12.4160000  10.9770000  -9.9080000  10.7390000
  10.8059011 -10.7863086  10.2706001  12.1700000  -9.1480000  10.3720000
  12.6763185  -8.7909097  11.2687872  13.1380000 -10.0400000   9.5850000
  14.0830260  -9.5067451   9.4817321  13.2978663 -10.9542299  10.1565999
  12.6350000 -10.3700000   8.2920000  13.2690258 -10.9271581   7.8346315
  11.8110000  -7.8520000   9.6370000  12.5240000  -6.8550000   9.7900000
  10.7040000  -7.8250000   8.8730000  10.2284756  -8.6756632   8.6077680
  10.1910000  -6.5520000   8.3570000  10.9555079  -6.0645161   7.7520320
   8.9490000  -6.7850000   7.4840000   8.4478433  -7.6811867   7.8497740
   8.2996833  -5.9215510   7.6287192   9.2600000  -6.9470000   5.9860000
  10.4420000  -6.9750000   5.5710000   8.2760000  -7.0620000   5.2230000
   9.8550000  -5.5830000   9.4970000  10.0820000  -4.3670000   9.3810000
   9.2800000  -6.0940000  10.5900000   8.9994040  -7.0635779  10.6258322
   8.9490000  -5.2320000  11.7290000   8.3894754  -4.3527306  11.4097558
   8.1020000  -6.0090000  12.7530000   8.5761272  -6.9701279  12.9518361
   7.9890000  -5.2210000  14.0510000   7.5145139  -4.2598694  13.8530308
   7.3874666  -5.7821295  14.7661166   8.9840156  -5.0561074  14.4643473
   6.6950000  -6.2910000  12.1920000   6.7785484  -6.8840607  11.2812856
   6.1121713  -6.8409435  12.9308995   6.1974814  -5.3477790  11.9663669
  10.2150000  -4.6430000  12.3640000  10.2510000  -3.4570000  12.7180000
  11.2780000  -5.4430000  12.4910000  11.2134146  -6.4351229  12.3131795
  12.5610000  -4.9010000  12.9490000  12.4640116  -4.5427491  13.9738652
  13.6510000  -5.9810000  12.9080000  13.4146516  -6.7982980  13.5893683
  13.7388386  -6.3686668  11.8930621  15.0250000  -5.4740000  13.2990000
  15.8380000  -4.6300000  12.5820000  15.4676849  -4.2953940  11.6129771
  16.9950000  -4.3820000  13.2790000  17.7464578  -3.7808536  12.9723509
  16.9620000  -5.0750000  14.4610000  17.9070000  -5.1440000  15.4920000
  18.8346287  -4.5813567  15.3869467  17.6010000  -5.9240000  16.5800000
  18.3139886  -5.9990278  17.4010469  16.3950000  -6.6270000  16.6630000
  16.1610203  -7.2409568  17.5327184  15.4510000  -6.5630000  15.6300000
  14.5343321  -7.1445480  15.7280953  15.7340000  -5.7690000  14.5130000
  12.9760000  -3.7050000  12.1020000  13.3040000  -2.6330000  12.6230000
  12.9470000  -3.8670000  10.7720000  12.6784891  -4.7476201  10.3566575
  13.3510000  -2.7820000   9.8890000  14.3700787  -2.4675967  10.1142294
  13.2980000  -3.2670000   8.4370000  12.2899940  -3.6001113   8.1898966
  13.5897287  -2.4621218   7.7623405  14.1970000  -4.3460000   8.2980000
  14.1775769  -4.6640492   7.3924243  12.4660000  -1.5570000  10.0680000
  12.9360000  -0.4180000   9.9590000  11.1670000  -1.7770000  10.2830000
  10.7804937  -2.7097647  10.2572654  10.2630000  -0.6620000  10.5220000
  10.2796510   0.0213997   9.6730083   8.8390000  -1.1760000  10.7060000
   8.5488069  -1.6487246   9.7676937   8.8461327  -1.9217139  11.5009591
   7.8510000  -0.0870000  11.0470000   7.2990000   0.7240000  10.0590000
   7.5858523   0.5622395   9.0199385   6.3910000   1.7320000  10.3830000
   5.9620856   2.3581347   9.6006384   6.0330000   1.9340000  11.7060000
   5.1300000   2.9270000  12.0620000   4.8056579   3.4265186  11.3090837
   6.5780000   1.1430000  12.6960000   6.2965096   1.3072923  13.7361306
   7.4780000   0.1450000  12.3730000   7.9086130  -0.4757476  13.1587131
  10.6890000   0.1330000  11.7490000  10.6450000   1.3710000  11.7460000
  11.1070000  -0.5620000  12.8040000  11.0535037  -1.5701961  12.8318959
  11.6600000   0.1330000  13.9600000  10.8781371   0.7516618  14.4005079
  11.9884168  -0.6092250  14.6875602  12.8370000   1.0150000  13.5890000
  12.9540000   2.1490000  14.0590000  13.7300000   0.5110000  12.7370000
  13.6943383  -0.4490365  12.4252989  14.8510000   1.3380000  12.3030000
  15.3597122   1.7939957  13.1523404  15.8570000   0.5050000  11.4900000
  15.3553408   0.0760843  10.6225499  16.9890000   1.3870000  11.0300000
  17.4914662   1.8159407  11.8969707  17.7005741   0.7951353  10.4542751
  16.5949096   2.1887901  10.4055606  16.3720000  -0.6780000  12.3270000
  15.4952307  -1.2019806  12.7075531  16.9190622  -1.3318995  11.6478551
  17.2950000  -0.2770000  13.5180000  16.7484421   0.3765744  14.1978638
  17.6104365  -1.1735071  14.0517360  18.1722731   0.2466579  13.1381655
  14.3470000   2.5370000  11.5130000  14.8180000   3.6670000  11.7010000
  13.3870000   2.3100000  10.6070000  13.0862251   1.3696192  10.3941204
  12.7900000   3.4120000   9.8620000  13.5395764   3.8973565   9.2369692
  11.6790000   2.8720000   8.9620000  12.1477165   2.4575136   8.0694726
  11.0749702   2.1037051   9.4446706  10.7330000   3.9290000   8.4960000
  11.1550000   4.9020000   7.6060000  12.1809088   4.8741271   7.2388022
  10.2910000   5.9050000   7.1800000  10.6260083   6.6509092   6.4592437
   9.0000000   5.9530000   7.6760000   8.3198093   6.7421220   7.3554895
   8.5710000   4.9920000   8.5850000   7.5530026   5.0213223   8.9734863
   9.4460000   3.9900000   8.9990000   9.1182171   3.2459256   9.7249556
  12.2410000   4.4990000  10.7860000  12.4380000   5.6980000  10.5410000
  11.5600000   4.0980000  11.8620000  11.3532815   3.1235754  12.0289234
  11.0520000   5.0850000  12.8090000  10.3812470   5.7774839  12.3004180
  10.2810000   4.3930000  13.9280000  10.9685701   3.6170984  14.2646354
  10.1424545   5.1250891  14.7235820   8.9360000   3.7630000  13.5770000
   9.0840352   2.9713274  12.8425336   8.3120000   3.1780000  14.8330000
   8.1632230   3.9692125  15.5678109   7.3509336   2.7271041  14.5857248
   8.9736117   2.4174652  15.2476772   8.0120000   4.7870000  12.9370000
   8.4694917   5.1699464  12.0247759   7.0591442   4.3162370  12.6950306
   7.8440397   5.6099304  13.6317474  12.1900000   5.9110000  13.3900000
  12.0590000   7.1280000  13.5870000  13.3220000   5.2670000  13.6690000
  13.4070318   4.2639310  13.5870157  14.4560000   6.0150000  14.1890000
  14.1505385   6.6066563  15.0519804  15.5630000   5.0480000  14.6250000
  15.1388317   4.2710964  15.2610828  16.0723258   4.5863638  13.7790808
  16.6150000   5.7360000  15.4340000  16.6710000   5.8300000  16.8020000
  15.8753936   5.3409050  17.3640465  17.7740000   6.5570000  17.1790000
  18.0449922   6.7593481  18.1306922  18.4500000   6.9580000  16.0570000
  19.6130000   7.7050000  15.9290000  20.1059762   8.0594971  16.8342099
  20.0690000   7.9500000  14.6650000  20.9799478   8.5322414  14.5261870
  19.3900000   7.4680000  13.5340000  19.7622988   7.6715735  12.5299826
  18.2340000   6.7240000  13.6580000  17.7527659   6.3606653  12.7499789
  17.7440000   6.4590000  14.9340000  14.9600000   7.0150000  13.1580000
  15.2680000   8.1600000  13.4970000  15.0030000   6.6200000  11.8810000
  14.7895201   5.6680251  11.6197156  15.3730000   7.5600000  10.8280000
  16.3804473   7.9405322  10.9963579  15.3400000   6.8500000   9.4830000
  14.3510681   6.3988905   9.4016791  15.4475852   7.6272011   8.7263734
  16.3890000   5.7970000   9.2710000  17.3950357   6.1889045   9.4206793
  16.1957024   5.0069630   9.9966561  16.2700000   5.2360000   7.8720000
  15.4280000   4.3310000   7.6890000  16.9670000   5.7350000   6.9580000
  14.4170000   8.7410000  10.7920000  14.8250000   9.8960000  10.5970000
  13.1330000   8.4490000  10.9680000  12.8539270   7.4953396  11.1489681
  12.0970000   9.4580000  10.8480000  12.2033612  10.0156632   9.9175172
  10.7410000   8.7540000  10.8430000  10.8401597   8.0405345  10.0249330
  10.6992265   8.2163535  11.7902546   9.4580000   9.5630000  10.6600000
   9.3552282  10.2690014  11.4840758   9.5140000  10.3230000   9.3470000
   9.6163104   9.6175908   8.5223611   8.5970984  10.8986423   9.2203972
  10.3688571  10.9992161   9.3541785   8.2750000   8.6280000  10.6830000
   8.2437909   8.1041342  11.6383481   7.3564265   9.2001603  10.5527825
   8.3685142   7.9029414   9.8745174  12.2000000  10.4750000  11.9780000
  12.3180000  11.6820000  11.7360000  12.2370000  10.0040000  13.2170000
  12.2079034   9.0178519  13.4332513  12.1960000  10.9560000  14.3220000
  11.6067006  11.8302990  14.0455462  11.5540000  10.3010000  15.5340000
  11.9973623   9.3289790  15.7501115  11.6590655  10.9492022  16.4039972
  10.0910000  10.0710000  15.3470000   9.1980000  11.1110000  15.5220000
   9.5737297  12.0919687  15.8129080   7.8390000  10.9180000  15.3320000
   7.1459793  11.7482032  15.4683293   7.3630000   9.6740000  14.9700000
   6.2937801   9.5185284  14.8261342   8.2440000   8.6250000  14.7900000
   7.8732539   7.6405288  14.5045811   9.6070000   8.8280000  14.9740000
  10.3056653   8.0047934  14.8246765  13.5520000  11.5500000  14.6620000
  13.6270000  12.3930000  15.5600000  14.6070000  11.1490000  13.9600000
  14.5221289  10.2974613  13.4235505  15.8910000  11.8370000  13.9650000
  15.9781430  12.4592501  14.8556796  17.0340000  10.8140000  13.9680000
  17.9690955  11.3306493  14.1842620  16.8415016  10.0724251  14.7433135
  17.1320000  10.1650000  12.7050000  17.8514899   9.5298095  12.7266137
  16.0390000  12.7790000  12.7770000  17.1260000  13.3360000  12.5670000
  14.9670000  12.9610000  11.9990000  14.1245966  12.4470131  12.2141122
  14.9860000  13.7870000  10.7930000  14.0582888  13.6397313  10.2400415
  15.1210000  15.2730000  11.1350000  16.1349435  15.3537625  11.5267846
  15.0337518  15.8712964  10.2280660  14.1280000  15.7850000  12.1810000
  14.2677133  15.2252379  13.1057959  14.3500000  17.2720000  12.4480000
  14.2099944  17.8325039  11.5236989  13.6349765  17.6183988  13.1942239
  15.3637228  17.4280517  12.8169368  12.6890000  15.5080000  11.7570000
  12.5451763  14.4341532  11.6375544  12.0063988  15.8828669  12.5196478
  12.4857853  16.0087791  10.8104151  16.0780000  13.3470000   9.8220000
  16.7810000  14.1720000   9.2330000  16.2200000  12.0380000   9.6460000
  15.7480522  11.3763070  10.2456057  17.0590000  11.5250000   8.5850000
  16.5866590  10.6107531   8.2256314  17.0535722  12.2722732   7.7914935
  18.4870000  11.2230000   8.9650000  19.3510000  11.1920000   8.0840000
  18.7800000  11.0120000  10.2410000  18.1032211  11.1524027  10.9774488
  20.1250000  10.6030000  10.6100000  20.8517600  11.2419036  10.1082817
  20.3350000  10.7160000  12.1180000  20.5637035  11.7525944  12.3655195
  19.4181487  10.4156613  12.6252281  21.4040000   9.8820000  12.5400000
  21.5203939   9.9666446  13.4891510  20.3760000   9.1700000  10.1580000
  19.4520000   8.3610000  10.0510000  21.6390000   8.8700000   9.8680000
  22.3508314   9.5850006   9.8214223  22.0240000   7.4960000   9.5950000
  21.3628832   7.0732381   8.8384975  23.4600000   7.4280000   9.0810000
  24.1157912   7.8614870   9.8360670  23.7217854   6.3805578   8.9312229
  23.6140000   8.1300000   7.8650000  24.5259946   8.0663444   7.5720604
  21.9030000   6.6750000  10.8780000  22.2650000   7.1600000  11.9540000
  21.4030000   5.4420000  10.8030000  20.8540000   4.7860000   9.6010000
  21.5704365   4.8711941   8.7839560  19.9210657   5.2733610   9.3177830
  20.6480000   3.3710000  10.0390000  21.4787882   2.7713146   9.6671566
  19.7160917   3.0083917   9.6052217  20.5850000   3.3500000  11.5350000
  21.0994547   2.4580320  11.8925311  19.5637291   3.3569987  11.9158626
  21.3270000   4.6030000  12.0070000  20.7715117   5.1515783  12.7676529
  22.7030000   4.2430000  12.5460000  23.6910000   4.1950000  11.8120000
  22.7440000   3.9680000  13.8480000  21.8858760   4.0360991  14.3762849
  23.9770000   3.6590000  14.5670000  23.8214068   3.7927081  15.6375195
  24.4020000   2.2180000  14.3130000  24.7439911   2.0968704  13.2851533
  25.2365674   2.0542029  14.9947388  23.3120000   1.2140000  14.6020000
  23.0330000   0.7950000  15.8980000  23.6321600   1.1920204  16.7174398
  22.0130000  -0.1120000  16.1590000  21.8220884  -0.4491257  17.1778233
  21.2240000  -0.5840000  15.1080000  20.2080000  -1.4800000  15.3580000
  20.1315917  -1.7109298  16.2866726  21.4640000  -0.1650000  13.8230000
  20.8476542  -0.5362406  13.0042212  22.4980000   0.7370000  13.5650000
  22.6810032   1.0794908  12.5465158  25.0910000   4.6370000  14.1980000
  26.1230000   4.2300000  13.6350000  24.9100000   5.9320000  14.4540000
  23.7750000   6.5550000  15.1610000  23.5608238   5.9904550  16.0684788
  22.8980915   6.5475856  14.5136396  24.2580000   7.9330000  15.4460000
  24.6532308   7.9608555  16.4614387  23.4166950   8.6213058  15.3651155
  25.3120000   8.2600000  14.4420000  26.0922486   8.8228213  14.9543898
  24.9424913   8.8396897  13.5961142  25.8730000   6.9180000  13.9520000
  25.8975574   6.8621043  12.8637120  27.2660000   6.6480000  14.5050000
  27.4350000   6.2860000  15.6720000  28.2630000   6.7710000  13.6300000
  28.0576473   7.0289368  12.6753282  29.6440000   6.5470000  13.9980000
  30.2537067   7.0057571  13.2196049  29.8054799   7.0698458  14.9406855
  30.0590000   5.0990000  14.1600000  31.2470000   4.8380000  14.3920000
  29.1330000   4.1450000  14.0550000  28.1658679   4.3803484  13.8836349
  29.4850000   2.7420000  14.2050000  30.4371443   2.6587560  14.7290142
  28.4230000   1.9950000  15.0030000  27.4893363   2.0928979  14.4491162
  28.7253505   0.9479503  15.0222641  28.2240000   2.4850000  16.4110000
  29.1601280   2.4049206  16.9635871  27.8997324   3.5255341  16.3954632
  26.9720000   1.4890000  17.2240000  27.7420000  -0.1220000  17.0670000
  28.7078301  -0.1144329  17.5721870  27.1008950  -0.8775179  17.5211780
  27.8861834  -0.3551031  16.0120235  29.6210000   2.1330000  12.8230000
  28.6130000   2.0170000  12.1120000  30.8120000   1.7350000  12.3970000
  32.1040000   1.8840000  13.0810000  32.2173321   1.0971793  13.8267676
  32.1501878   2.8569532  13.5702114  33.0810000   1.7620000  11.9710000
  33.9856302   1.2894184  12.3536353  33.3200868   2.7607657  11.6057522
  32.4450000   0.9350000  10.8920000  32.7818255  -0.0904655  11.0438821
  32.6863700   1.2495487   9.8766679  30.9320000   1.0260000  11.1220000
  30.4156409   1.5939404  10.3481039  30.3160000  -0.3590000  11.2290000
  30.1310000  -0.9040000  12.3160000  30.0110000  -0.9450000  10.0720000
  30.0332570  -0.4318689   9.2023447  29.5800000  -2.3390000  10.0420000
  29.0088608  -2.5897014  10.9358949  28.7280000  -2.6600000   8.8110000
  29.2323938  -2.2876025   7.9193688  28.5290000  -4.1650000   8.6900000
  28.0242118  -4.5380807   9.5811232  27.9217504  -4.3822398   7.8112763
  29.4984063  -4.6533925   8.5908748  27.3780000  -1.9440000   8.8800000
  27.5392132  -0.8668475   8.9230682  26.7911044  -2.1878999   7.9944685
  26.8403467  -2.2663258   9.7717039  30.8530000  -3.1800000  10.0840000
  31.5830000  -3.2690000   9.0940000  31.1380000  -3.7730000  11.2390000
  30.5274730  -3.6094536  12.0267872  32.3360000  -4.5790000  11.4480000
  32.5558959  -5.1464592  10.5437130  33.5480000  -3.6910000  11.7780000
  34.3850661  -4.3644081  11.9622312  33.7654499  -3.0714708  10.9079430
  33.3350000  -2.7950000  13.0020000  32.4070000  -3.0310000  13.8040000
  34.1030000  -1.8200000  13.1510000  32.0280000  -5.5950000  12.5460000
  30.8770000  -5.7360000  12.9730000  33.0680000  -6.3050000  12.9980000
  33.9878901  -6.1666597  12.6045999  32.9040000  -7.3200000  14.0350000
  32.2629310  -8.1245132  13.6746001  34.2690000  -7.9100000  14.4050000
  34.9323062  -7.1038527  14.7184496  34.1414326  -8.6150045  15.2264592
  34.8330000  -8.5790000  13.2930000  35.6866765  -8.9434032  13.5380439
  32.2390000  -6.7420000  15.2780000  31.3260000  -7.3570000  15.8490000
  32.6850000  -5.5600000  15.7120000  33.4534459  -5.0815984  15.2639799
  32.1020000  -4.9630000  16.9090000  32.1538681  -5.6716262  17.7355941
  32.8570000  -3.6990000  17.3030000  33.9209405  -3.9352017  17.3214016
  32.6663640  -2.9427389  16.5415362  32.4320000  -3.1660000  18.6650000
  31.3728756  -3.3801988  18.8080920  33.0122669  -3.6746209  19.4348682
  32.6630000  -1.6690000  18.7640000  33.3041977  -1.3594950  17.9386691
  31.7014178  -1.1616199  18.6863825  33.3200000  -1.3050000  20.0760000
  32.5619496  -1.3428962  20.8583196  34.0944258  -2.0429851  20.2851453
  33.9270000   0.0540000  20.0390000  33.2094919   0.7380278  19.8456406
  34.3535015   0.2566258  20.9318266  34.6297546   0.0892022  19.3144340
  30.6230000  -4.6570000  16.7140000  29.8250000  -4.8210000  17.6450000
  30.2290000  -4.2300000  15.5100000  30.8813332  -4.0452438  14.7613840
  28.8170000  -3.9560000  15.2790000  28.4680133  -3.2256751  16.0090226
  28.5750000  -3.3970000  13.8730000  29.0215585  -2.4046673  13.8100673
  28.9932601  -4.0332106  13.0930034  27.1120000  -3.2320000  13.5560000
  26.4210000  -2.1080000  13.9900000  26.9513544  -1.3392556  14.5520108
  25.0600000  -1.9570000  13.7130000  24.5317228  -1.0613300  14.0398015
  24.3810000  -2.9490000  13.0210000  23.3171022  -2.8402157  12.8103166
  25.0610000  -4.0840000  12.5960000  24.5317402  -4.8650836  12.0502046
  26.4100000  -4.2220000  12.8660000  26.9427546  -5.1148582  12.5387743
  27.9800000  -5.2090000  15.4920000  26.9910000  -5.1780000  16.2230000
  28.3710000  -6.3320000  14.8740000  29.1895972  -6.3573231  14.2829360
  27.5750000  -7.5520000  15.0090000  26.5439957  -7.3490320  14.7192876
  28.1220000  -8.6620000  14.1180000  29.1491036  -8.8392369  14.4369743
  27.5271203  -9.5578556  14.2959353  28.1030000  -8.3310000  12.6500000
  26.9000000  -8.1230000  12.0000000  25.9685039  -8.1974004  12.5611408
  26.8720000  -7.8220000  10.6460000  25.9243308  -7.6499435  10.1356848
  28.0540000  -7.7420000   9.9470000  28.0220000  -7.4490000   8.6000000
  27.1313702  -7.3229856   8.2645919  29.2610000  -7.9510000  10.5810000
  30.1970672  -7.8840955  10.0265611  29.2770000  -8.2470000  11.9290000
  30.2254474  -8.4180399  12.4382081  27.5370000  -8.0330000  16.4480000
  26.4940000  -8.5000000  16.9320000  28.6750000  -7.9450000  17.1360000
  29.5226637  -7.6367327  16.6815368  28.7500000  -8.3570000  18.5300000
  28.4224852  -9.3906858  18.6410269  30.2010000  -8.2500000  19.0050000
  30.7904738  -8.9145274  18.3733172  30.5133202  -7.2191359  18.8380409
  30.4180000  -8.6150000  20.4660000  29.9649795  -7.8499539  21.0965377
  29.9470118  -9.5770706  20.6677234  31.9100000  -8.7060000  20.7700000
  32.2647639  -9.6960630  20.4836142  32.4323370  -7.9498608  20.1838968
  32.1830000  -8.4780000  22.2510000  33.2367333  -8.2292852  22.3770460
  31.5699447  -7.6446864  22.5942942  31.8610000  -9.6930000  23.0500000
  32.4292729 -10.4651778  22.7323412  32.0508518  -9.5143123  24.0257699
  30.8845315  -9.9233866  22.9336801  27.8120000  -7.5250000  19.3970000
  27.0670000  -8.0710000  20.2160000  27.8040000  -6.2030000  19.2040000
  28.4226237  -5.7510855  18.5458379  26.9320000  -5.3650000  20.0220000
  27.0924561  -5.5908266  21.0762084  27.2240000  -3.8820000  19.7900000
  27.2624935  -3.7050799  18.7151434  26.4103292  -3.3011841  20.2243878
  28.5340000  -3.4610000  20.4170000  28.4130773  -3.5286339  21.4981587
  29.2931370  -4.1722993  20.0916288  29.0590000  -1.7970000  19.9840000
  27.8180000  -0.8240000  20.8490000  27.8690756  -1.0357359  21.9170160
  28.0044362   0.2365662  20.6800576  26.8273451  -1.0823350  20.4748782
  25.4650000  -5.6620000  19.7620000  24.6670000  -5.7300000  20.7070000
  25.0910000  -5.8490000  18.4950000  25.7419713  -5.7333872  17.7314756
  23.7010000  -6.1560000  18.1780000  23.0357541  -5.4126102  18.6172251
  23.4950000  -6.1910000  16.6520000  24.2323368  -6.8562904  16.2027523
  22.0900000  -6.6990000  16.3330000  21.3520593  -6.0339137  16.7815581
  21.9481246  -6.7223185  15.2525240  21.9659297  -7.7037375  16.7369904
  23.7050000  -4.8000000  16.0510000  24.7262732  -4.5048792  16.2918435
  23.6031078  -4.9060178  14.9709640  22.7450000  -3.7420000  16.5460000
  22.8466488  -3.6350803  17.6259702  22.9717952  -2.7908786  16.0643037
  21.7234826  -4.0362205  16.3050925  23.3040000  -7.4750000  18.8250000
  22.2470000  -7.5870000  19.4550000  24.1630000  -8.4890000  18.7020000
  25.0220570  -8.3862042  18.1808920  23.8530000  -9.7970000  19.2760000
  22.9085030 -10.1660532  18.8762197  24.9550000 -10.7960000  18.9260000
  24.9749616 -10.8898570  17.8402322  25.8982987 -10.3725809  19.2709693
  24.7590000 -12.1610000  19.5460000  24.7898112 -12.0501782  20.6299142
  23.7790868 -12.5331611  19.2470548  25.8280000 -13.1440000  19.1080000
  25.8709623 -13.1553097  18.0189062  26.7894134 -12.8189691  19.5056664
  25.5160000 -14.5420000  19.6170000  25.4884190 -14.4986558  20.7057888
  24.5315034 -14.8188266  19.2398625  26.5140000 -15.5560000  19.1870000
  27.4262526 -15.2998999  19.5367252  26.2544815 -16.4604866  19.5539525
  26.5394069 -15.5966253  18.1781377  23.6790000  -9.7160000  20.7920000
  22.7900000 -10.3630000  21.3610000  24.5220000  -8.9260000  21.4580000
  25.2431674  -8.4423277  20.9421725  24.4980000  -8.7860000  22.9100000
  24.2935534  -9.7480979  23.3797536  25.8570000  -8.2850000  23.3950000
  26.1266393  -7.3938716  22.8281807  25.7825387  -8.0333345  24.4529320
  26.9230000  -9.3490000  23.2020000  26.5870544 -10.2153540  23.7718000
  26.9530028  -9.6013035  22.1420274  28.3160000  -8.9450000  23.6670000
  28.5160000  -7.8120000  24.1530000  29.2260000  -9.7820000  23.5160000
  23.3890000  -7.8690000  23.4190000  23.1990000  -7.7700000  24.6360000
  22.6580000  -7.2020000  22.5360000  22.9183063  -7.2139069  21.5601936
  21.4860000  -6.4480000  22.9240000  20.6693186  -6.7991287  22.2932549
  21.2802772  -6.7083254  23.9622717  21.5880000  -4.9470000  22.8050000
  20.6650000  -4.2520000  23.2390000  22.6710000  -4.4200000  22.2410000
  23.4456389  -4.9921784  21.9366223  22.7650000  -2.9800000  22.0610000
  22.6787471  -2.4885278  23.0300793  24.0880000  -2.5860000  21.4340000
  24.8712840  -2.8681462  22.1375331  24.2792227  -3.0573363  20.4699585
  24.2150000  -1.1060000  21.2210000  24.4770000  -0.2550000  22.2830000
  24.6078540  -0.6736007  23.2808730  24.5730000   1.1110000  22.0880000
  24.8123633   1.7656254  22.9260164  24.3650000   1.6470000  20.8280000
  24.4315448   2.7232588  20.6688183  24.0710000   0.8070000  19.7670000
  23.9090521   1.2221024  18.7722322  23.9830000  -0.5560000  19.9690000
  23.7283991  -1.2146908  19.1386960  21.6410000  -2.4860000  21.1660000
  21.3580000  -3.0800000  20.1220000  21.0170000  -1.3790000  21.5720000
  21.2504676  -0.9895684  22.4741836  19.9710000  -0.7290000  20.7870000
  20.0593196  -1.0465538  19.7480301  18.5640000  -1.0820000  21.2900000
  18.4808476  -0.6671854  22.2945465  17.8619613  -0.5743115  20.6285667
  18.2420000  -2.5640000  21.3270000  18.9838736  -3.0543715  21.9572858
  17.2534476  -2.6830590  21.7704988  18.2560000  -3.2000000  19.9330000
  17.5820029  -2.6578700  19.2697338  19.2656523  -3.1758723  19.5229763
  17.8180000  -4.5850000  20.0120000  16.8278938  -4.7330908  20.1456346
  18.6120000  -5.6460000  19.9310000  19.9240000  -5.5200000  19.7740000
  20.3362560  -4.5999332  19.7138168  20.5040194  -6.3447715  19.7154409
  18.0700000  -6.8630000  20.0010000  17.0712003  -6.9619223  20.1137546
  18.6609447  -7.6798682  19.9409222  20.1700000   0.7820000  20.8240000
  20.6270000   1.3530000  21.8260000  19.8260000   1.4190000  19.7050000
  19.5287202   0.8824443  18.9026085  19.8750000   2.8680000  19.5860000
  20.8957199   3.2264563  19.7191885  19.3910000   3.2760000  18.1910000
  18.5478534   2.6302411  17.9456463  19.0485269   4.3083118  18.2627259
  20.4460000   3.1670000  17.1020000  21.3627624   3.6309838  17.4658223
  20.6273788   2.1102913  16.9056064  19.9370000   3.9790000  15.5660000
  18.7490000   2.7790000  14.9480000  17.9426016   2.6594918  15.6715596
  18.3378607   3.1285451  14.0009607  19.2453664   1.8205033  14.7963238
  18.9910000   3.5020000  20.6490000  17.9470000   2.9570000  21.0160000
  19.4240000   4.6490000  21.1610000  20.3368741   5.0092781  20.9223372
  18.6200000   5.3890000  22.1210000  18.1194751   4.6965478  22.7978190
  19.5030000   6.3210000  22.9430000  18.8813217   6.8927983  23.6319573
  20.2229653   5.7300258  23.5091268  20.1900000   7.2040000  22.0880000
  20.7443808   7.7885042  22.6101270  17.5270000   6.1780000  21.3970000
  17.4690000   6.2240000  20.1610000  16.6620000   6.8220000  22.1750000
  16.7593307   6.8170661  23.1802869  15.5170000   7.5200000  21.5930000
  14.9825086   6.8459491  20.9236171  14.5530000   7.9970000  22.6770000
  14.1694302   7.1351698  23.2230973  15.0818675   8.6564954  23.3650879
  13.4730000   8.7000000  22.0850000  12.8705199   8.9973482  22.7707125
  15.9890000   8.7070000  20.7640000  16.8100000   9.5000000  21.2380000
  15.5040000   8.8670000  19.5350000  14.5960000   7.9600000  18.8130000
  13.6987239   7.7967961  19.4099593  15.0971806   7.0070448  18.6433138
  14.3110000   8.6960000  17.5290000  13.3386551   9.1806813  17.6169115
  14.2833843   7.9724379  16.7142629  15.3970000   9.6910000  17.3190000
  14.9481831  10.5807520  16.8774076  16.2151183   9.3455375  16.6869892
  15.9230000  10.0150000  18.7280000  17.0099920  10.0910310  18.7556745
  15.3130000  11.2950000  19.2700000  14.3560000  11.2770000  20.0500000
  15.8830000  12.4200000  18.8230000  16.5401828  12.4004294  18.0563011
  15.6210000  13.6990000  19.4780000  15.9423542  13.6540711  20.5185826
  16.3860000  14.8250000  18.7780000  17.4504421  14.6611877  18.9460113
  16.1730846  14.7611908  17.7109033  15.9950000  16.2160000  19.2950000
  14.9735032  16.4009055  18.9626521  16.0219973  16.1841072  20.3841984
  16.9000000  17.3340000  18.7980000  17.6270000  17.1300000  17.8020000
  16.8880000  18.4220000  19.4190000  14.1330000  14.0240000  19.5190000
  13.6230000  14.5050000  20.5390000  13.4120000  13.7580000  18.4320000
  13.8255993  13.2890011  17.6388575  12.0360000  14.2230000  18.3190000
  11.8095799  14.9358140  19.1119246  11.8460000  14.9180000  16.9670000
  12.0921774  14.2100394  16.1756166  10.8010765  15.2146574  16.8762846
  12.7280000  16.1380000  16.8430000  12.4560000  17.2860000  17.5770000
  11.5895036  17.2913915  18.2382521  13.2600000  18.4080000  17.4810000
  13.0321301  19.2987480  18.0664444  14.3490000  18.4000000  16.6310000
  15.1430000  19.5220000  16.5350000  14.8468950  20.2404214  17.0987306
  14.6470000  17.2720000  15.8900000  15.5115246  17.2589894  15.2262769
  13.8330000  16.1460000  15.9960000  14.0574508  15.2542028  15.4108336
  11.0010000  13.1200000  18.5140000   9.8110000  13.3640000  18.2980000
  11.4140000  11.9270000  18.9470000  12.3872291  11.7564184  19.1563476
  10.4700000  10.8210000  19.0920000   9.7905942  10.8261506  18.2396618
  11.1930000   9.4810000  19.1300000  11.8704232   9.4571491  19.9835976
  10.4635023   8.6764786  19.2231592  11.7632297   9.3490306  18.2104776
   9.6380000  10.9770000  20.3570000  10.2010000  11.1360000  21.4480000
   8.3120000  10.9310000  20.2540000   7.5060000  11.2830000  19.0700000
   7.5048973  10.4475158  18.3699534   7.9348488  12.1607971  18.5866161
   6.1360000  11.5560000  19.6510000   5.3685021  11.2591800  18.9361966
   6.0357545  12.6189536  19.8705039   6.0600000  10.7490000  20.8940000
   5.8009950   9.7321255  20.5990736   5.3566373  11.0977531  21.6501427
   7.4860000  10.7820000  21.4520000   7.6758190  11.6185093  22.1245469
   7.8210000   9.4780000  22.1590000   8.1770000   8.4840000  21.5230000
   7.6900000   9.4880000  23.4910000   7.4279859  10.3306045  23.9823915
   7.9830000   8.2910000  24.2760000   9.0455513   8.0676206  24.1801588
   7.6660000   8.5370000  25.7540000   6.6036425   8.7530571  25.8672069
   7.9193839   7.6490402  26.3331583   8.2490361   9.3842353  26.1150548
   7.2110000   7.0800000  23.7720000   7.7340000   5.9580000  23.7560000
   5.9660000   7.2860000  23.3490000   5.5163036   8.1886684  23.4043377
   5.1850000   6.1540000  22.8720000   5.2975659   5.3079868  23.5500042
   3.7070000   6.5350000  22.8080000   3.6339914   7.4961874  22.2991899
   3.1933681   5.7737336  22.2208409   3.0540000   6.6390000  24.1940000
   3.3545414   5.7535951  24.7542087   3.4358431   7.5302892  24.6918941
   1.5400000   6.7060000  24.1290000   1.0090000   7.0810000  23.0660000
   0.8850000   6.4020000  25.1480000   5.6920000   5.6530000  21.5250000
   5.5110000   4.4770000  21.2030000   6.3550000   6.5060000  20.7480000
   6.4296986   7.4879589  20.9722235   6.9430000   6.0330000  19.4890000
   6.2785888   5.3011250  19.0296353   7.1500000   7.1920000  18.5060000
   7.7380564   7.9402134  19.0374750   7.7363455   6.7892704  17.6801018
   5.8770000   7.8390000  17.9590000   5.3653489   8.3359234  18.7832458
   6.1640397   8.5785746  17.2115111   4.7590000   6.6350000  17.2050000
   5.7950000   6.0710000  15.8690000   6.7094931   5.6388108  16.2752191
   5.2631052   5.3161932  15.2898151   6.0469198   6.9125662  15.2237062
   8.2610000   5.3110000  19.7250000   8.5710000   4.3390000  19.0330000
   9.0580000   5.7530000  20.7070000   8.9075075   6.6215780  21.1999743
  10.2590000   4.9850000  21.0110000  10.7848682   4.7379422  20.0887613
  11.1960000   5.7980000  21.9050000  11.4067637   6.7684936  21.4557560
  10.6333374   5.9398284  22.8277110  12.4970000   5.0920000  22.2120000
  12.7970000   4.6500000  23.4920000  12.0753291   4.8181691  24.2913809
  14.0080000   3.9950000  23.7660000  14.2535432   3.6902897  24.7833308
  14.8920000   3.7330000  22.7320000  16.1000000   3.0770000  22.9420000
  16.2413234   2.8361346  23.8604831  14.5830000   4.1320000  21.4430000
  15.2729059   3.9252004  20.6248532  13.3910000   4.7970000  21.1940000
  13.1383315   5.1008341  20.1781538   9.9010000   3.6470000  21.6370000
  10.5950000   2.6550000  21.4070000   8.8020000   3.5910000  22.3920000
   8.3116820   4.4294255  22.6690022   8.3090000   2.3090000  22.8800000
   9.0526818   1.8507957  23.5319857   7.0160000   2.5010000  23.6730000
   6.3552037   3.1397790  23.0869891   6.5535962   1.5224934  23.8026443
   7.2540000   3.1320000  25.0330000   8.3970000   3.0590000  25.5310000
   6.2950000   3.6970000  25.5950000   8.0750000   1.3420000  21.7300000
   8.3940000   0.1510000  21.8360000   7.5140000   1.8340000  20.6210000
   7.1420717   2.7720873  20.5790361   7.3300000   0.9640000  19.4630000
   6.8307508   0.0428258  19.7634789   6.5060000   1.6590000  18.3670000
   6.9389542   2.6361612  18.1529741   6.5180000   0.8000000  17.0860000
   6.0847425  -0.1772207  17.2991393   5.9332031   1.2948410  16.3105996
   7.5445464   0.6744650  16.7416998   5.0670000   1.8830000  18.8540000
   4.6172135   0.8988565  18.9853559   5.1308303   2.3845534  19.8196445
   4.2060000   2.7130000  17.9060000   4.1413196   2.2118154  16.9402204
   3.2059027   2.8233422  18.3252007   4.6549381   3.6975121  17.7745073
   8.6780000   0.4810000  18.9380000   8.8710000  -0.7210000  18.7270000
   9.6380000   1.3960000  18.7480000   9.4758780   2.3879990  18.8467614
  10.9400000   0.9520000  18.2470000  10.7815892   0.4201739  17.3088283
  11.9250000   2.1000000  17.9990000  12.4352902   2.2411638  18.9517727
  12.6295138   1.7099955  17.2643866  11.3780000   3.4280000  17.5180000
  10.9636678   3.2871630  16.5197041  10.5859784   3.7397882  18.1988759
  12.6500000   4.7120000  17.4580000  11.6630000   6.1330000  17.0430000
  10.9139934   6.2947245  17.8181989  12.3035870   7.0117452  16.9684624
  11.1658956   5.9643107  16.0877344  11.5810000  -0.1040000  19.1370000
  12.1200000  -1.1010000  18.6310000  11.5370000   0.0830000  20.4540000
  11.1452518   0.9186380  20.8642949  12.1310000  -0.9050000  21.3380000
  13.1898935  -1.0288397  21.1110473  11.9930000  -0.4360000  22.7910000
  10.9871070  -0.0338886  22.9117682  12.1134676  -1.3102591  23.4307332
  13.0000000   0.6100000  23.1780000  13.9906929   0.2730141  22.8729280
  12.7575190   1.5385510  22.6611846  12.9860000   0.8480000  24.6820000
  13.2179094  -0.0995887  25.1682023  13.7677685   1.5729604  24.9086491
  11.6490000   1.3670000  25.1940000  11.2287199   2.0481895  24.4541040
  10.9739029   0.5228982  25.3348375  11.8230000   2.0880000  26.4930000
  12.4481885   2.8704575  26.3626183  10.9262598   2.4234879  26.8145662
  12.2120322   1.4568529  27.1788618  11.5050000  -2.2810000  21.1490000
  12.2120000  -3.2950000  21.1690000  10.1820000  -2.3490000  20.9830000
   9.5847507  -1.5360480  21.0330164   9.5580000  -3.6560000  20.8010000
   9.9721251  -4.3771036  21.5057050   8.0390000  -3.5730000  21.0190000
   7.6127149  -4.5724837  20.9328976   7.7290000  -3.0050000  22.4030000
   8.1545999  -2.0052757  22.4896931   6.6490762  -2.9528346  22.5413565
   8.1618442  -3.6510773  23.1667608   7.4280000  -2.7420000  20.0200000
   6.4809908  -2.7022872  20.1723050   9.8720000  -4.2360000  19.4220000
  10.0570000  -5.4540000  19.2960000   9.9510000  -3.3760000  18.3970000
   9.7234410  -2.4024383  18.5401568  10.3510000  -3.8070000  17.0510000
   9.6447798  -4.5427962  16.6663494  10.3660000  -2.6040000  16.1070000
  10.8470120  -1.7535420  16.5901644  10.9024105  -2.8520655  15.1911248
   8.7550000  -2.0370000  15.5980000   9.1933596  -1.0410147  14.8333090
  11.7400000  -4.4450000  17.0530000  12.0450000  -5.2910000  16.2050000
  12.5960000  -4.0540000  17.9940000  12.2896751  -3.3601126  18.6609218
  13.9740000  -4.5250000  18.0700000  14.2625583  -4.9829320  17.1238860
  14.9170000  -3.3580000  18.3550000  14.6334461  -2.9369731  19.3195894
  15.9545559  -3.6896555  18.3947799  14.8640000  -2.2420000  17.3710000
  14.5730000  -2.3280000  16.0310000  14.3324049  -3.3143640  15.6343897
  14.6550000  -1.0780000  15.4560000  14.4677634  -0.8648875  14.4866574
  15.0160000  -0.1670000  16.4170000  15.2170000   1.2130000  16.3210000
  15.0836556   1.6930728  15.3515424  15.5740000   1.8830000  17.4690000
  15.7446118   2.9588630  17.4301362  15.7240000   1.2170000  18.6880000
  16.0058541   1.7594096  19.5904686  15.5190000  -0.1550000  18.7880000
  15.6417674  -0.6268535  19.7628760  15.1560000  -0.8680000  17.6330000
  14.1760000  -5.6180000  19.1170000  15.3120000  -5.8670000  19.5310000
  13.1160000  -6.2940000  19.5400000  12.1730988  -6.0414655  19.2806489
  13.3040000  -7.4060000  20.4550000  13.8567824  -7.0734350  21.3335962
  11.9550000  -7.9550000  20.9070000  11.2470167  -7.1331261  21.0136877
  11.6114514  -8.6304115  20.1234863  12.0530000  -8.7100000  22.2170000
  12.6950000  -9.7790000  22.2410000  11.5130000  -8.2130000  23.2220000
  14.1350000  -8.4990000  19.7920000  13.9220000  -8.8430000  18.6250000
  15.1090000  -9.0310000  20.5340000  15.3385235  -8.6701336  21.4489829
  15.9210000 -10.1170000  19.9950000  16.3764217  -9.7832016  19.0626541
  17.0350000 -10.4810000  20.9810000  16.5945386 -10.8258137  21.9165198
  17.6518993 -11.2731746  20.5567418  17.6525128  -9.6034361  21.1724646
  15.0670000 -11.3370000  19.6690000  15.3910000 -12.0970000  18.7460000
  13.9660000 -11.5240000  20.3980000  13.7768345 -10.8980706  21.1677585
  13.0290000 -12.6080000  20.1440000  13.5612964 -13.4733077  19.7490287
  12.3260000 -13.0160000  21.4380000  13.1131685 -13.1901693  22.1715734
  11.6967033 -12.1903352  21.7702098  11.4760000 -14.2780000  21.2940000
  11.0840000 -14.6430000  20.1640000  11.1710000 -14.8980000  22.3330000
  12.0080000 -12.1390000  19.1170000  11.1940000 -11.2550000  19.4310000
  11.9980000 -12.6930000  17.9060000  12.8900000 -13.7400000  17.3750000
  12.5693361 -14.7178814  17.7341975  13.9143821 -13.5531422  17.6972181
  12.7180000 -13.5850000  15.8770000  12.9377182 -14.5206812  15.3628759
  13.3671633 -12.7984759  15.4922037  11.2770000 -13.2070000  15.7320000
  10.6466294 -14.0913143  15.8253819  11.0607328 -12.7052277  14.7888390
  11.0140000 -12.2520000  16.9060000  11.2403681 -11.2154880  16.6560027
   9.5780000 -12.3530000  17.3920000   8.7400000 -11.5160000  17.0210000
   9.2720000 -13.3550000  18.2250000   9.9828034 -14.0158176  18.5046031
   7.9090000 -13.5610000  18.7040000   7.2157137 -13.5629526  17.8628998
   7.8010000 -14.9020000  19.4290000   8.5491953 -14.9187971  20.2214777
   6.8054932 -14.9642668  19.8685327   8.0190000 -16.0820000  18.5040000
   7.6420000 -15.9830000  17.3170000   8.5690000 -17.1060000  18.9620000
   7.4270000 -12.4510000  19.6240000   6.2160000 -12.2940000  19.7970000
   8.3300000 -11.6800000  20.2150000   9.3155709 -11.8806331  20.1228278
   7.9270000 -10.5840000  21.0850000   6.9372794 -10.7817155  21.4966562
   8.9200000 -10.4330000  22.2460000   9.9156084 -10.2971062  21.8236305
   8.6427880  -9.5452627  22.8144858   8.9210000 -11.6530000  23.1730000
   8.0709686 -11.5597078  23.8489024   8.7972165 -12.5422846  22.5549768
  10.2040000 -11.7740000  23.9850000  11.0439984 -11.8353790  23.2930937
  10.3060957 -10.8807548  24.6012702  10.1910000 -13.0160000  24.8840000
  10.0382215 -12.6850606  25.9112480   9.3545408 -13.6437756  24.5768630
  11.4630000 -13.8020000  24.7970000  12.2381552 -13.2206000  25.0819704
  11.4040083 -14.6062799  25.4050739  11.6045370 -14.1091133  23.8452922
   7.7690000  -9.2640000  20.3440000   7.3240000  -8.2790000  20.9400000
   8.0740000  -9.2270000  19.0500000   8.4665853 -10.0272199  18.5750009
   7.8690000  -8.0120000  18.2920000   8.2048061  -7.1480373  18.8654997
   8.6740000  -8.0780000  16.9890000   8.3724863  -8.9748526  16.4478492
   8.4319805  -7.1970015  16.3945522  10.1910000  -8.1210000  17.2480000
  10.4787168  -7.1742927  17.7052365  10.3878121  -8.9353259  17.9453094
  11.0100000  -8.3390000  15.9590000  10.5000986  -9.0647699  15.3254721
  11.1022362  -7.3930666  15.4253316  12.3510000  -8.8400000  16.2600000
  12.7282818  -8.6074222  17.1675601  13.0990000  -9.5510000  15.4270000
  12.7010000  -9.8100000  14.1900000  11.8097835  -9.4621210  13.8662511
  13.2906723 -10.3541105  13.5765426  14.2650000 -10.0310000  15.8500000
  14.5684572  -9.8507110  16.7963137  14.8416483 -10.5735944  15.2229699
   6.3790000  -7.8340000  17.9820000   5.6490000  -8.8180000  17.8180000
   5.8980000  -6.5990000  17.8960000   6.6400000  -5.3300000  17.9970000
   7.5375855  -5.3835502  17.3809051   6.9224398  -5.1555327  19.0352138
   5.6440000  -4.3040000  17.4880000   5.8353692  -4.1092177  16.4327575
   5.7582829  -3.3795852  18.0541255   4.2980000  -4.8880000  17.6950000
   3.6488327  -4.4939272  16.9130873   3.8439715  -4.7065287  18.6691796
   4.5080000  -6.3870000  17.4890000   3.8563302  -7.0050607  18.1065967
   4.3260000  -6.7630000  16.0280000   5.2850000  -6.8830000  15.2640000
   3.0710000  -6.9670000  15.6480000   2.3348307  -7.0646650  16.3325551
   2.7200000  -7.0610000  14.2400000   3.5439347  -7.5060784  13.6822042
   1.4740000  -7.9150000  14.0330000   1.2825837  -8.0098581  12.9641399
   1.6690000  -9.2940000  14.6360000   1.8600157  -9.1999755  15.7050051
   0.7700603  -9.8901503  14.4791200   2.5171771  -9.7836992  14.1575745
   0.3550000  -7.2660000  14.6580000  -0.4343969  -7.7976377  14.5322454
   2.4570000  -5.6650000  13.7060000   2.2560000  -4.7200000  14.4680000
   2.4190000  -5.5370000  12.3780000   2.6762761  -6.2765398  11.7400429
   2.0640000  -4.2370000  11.8220000   2.6768698  -3.4598089  12.2785784
   2.2990000  -4.2200000  10.3110000   1.9509766  -5.1354579   9.8325485
   1.7747399  -3.3652951   9.8835296   3.7580000  -4.0640000   9.9380000
   4.4490000  -2.9190000  10.2930000   3.9233980  -2.1323740  10.8343520
   5.7970000  -2.7620000   9.9690000   6.3207618  -1.8466130  10.2443922
   6.4720000  -3.7730000   9.2950000   7.5246204  -3.6565624   9.0370611
   5.7930000  -4.9440000   8.9480000   6.3123556  -5.7487273   8.4276310
   4.4400000  -5.0800000   9.2720000   3.9040945  -5.9903497   9.0033577
   0.6240000  -3.8630000  12.1470000   0.3120000  -2.6770000  12.2970000
  -0.2640000  -4.8540000  12.2470000  -0.0191410  -5.8077042  12.0220738
  -1.6430000  -4.5650000  12.6270000  -2.0656876  -3.8316194  11.9402779
  -2.4850000  -5.8390000  12.5600000  -2.4628993  -6.2368049  11.5454252
  -2.0794698  -6.5798140  13.2490863  -3.9243184  -5.5180468  12.9485562
  -3.9472755  -5.1205969  13.9632519  -4.3307070  -4.7775900  12.2595903
  -4.7643517  -6.7890705  12.8817149  -4.7422501  -7.1868772  11.8671409
  -4.3588217  -7.5298828  13.5708026  -6.2036707  -6.4681157  13.2702693
  -6.2266287  -6.0706649  14.2849645  -6.6100580  -5.7276619  12.5813015
  -7.0134066  -7.6932997  13.2058404  -6.6372621  -8.3793987  13.8444978
  -7.9666608  -7.4807336  13.4631768  -6.9926139  -8.0615129  12.2655821
  -1.6880000  -3.9520000  14.0200000  -2.4020000  -2.9700000  14.2550000
  -0.8730000  -4.4780000  14.9400000  -0.3342566  -5.3100042  14.7460310
  -0.7970000  -3.9010000  16.2780000  -1.7981252  -3.7847436  16.6931288
   0.0070000  -4.8180000  17.1940000   0.9308578  -5.0783063  16.6774473
   0.2428315  -4.2602425  18.1003057  -0.7390000  -6.0820000  17.5600000
  -1.5428788  -5.8453022  18.2570321  -1.1627123  -6.4918010  16.6431396
   0.1550000  -7.1290000  18.1900000   1.3760000  -7.1030000  18.0280000
  -0.4510000  -8.0460000  18.9390000   0.0940412  -8.7699564  19.3850030
  -1.4534231  -8.0141545  19.0583114  -0.1940000  -2.5010000  16.2470000
  -0.6720000  -1.5960000  16.9460000   0.8560000  -2.3030000  15.4420000
   1.2804063  -3.0707893  14.9415220   1.4720000  -0.9820000  15.3360000
   1.7301642  -0.6120027  16.3282462   2.7410000  -1.0410000  14.4640000
   2.5156515  -1.5604419  13.5326040   3.2160000   0.3640000  14.1560000
   3.4420016   0.8839512  15.0869536   4.1135092   0.3176374  13.5392112
   2.4347778   0.9028660  13.6198895   3.8530000  -1.8160000  15.1710000
   4.2632885  -1.1662832  15.9440667   3.3971346  -2.6900992  15.6360127
   4.9790000  -2.2660000  14.2310000   5.4356831  -1.3923544  13.7659368
   5.7328770  -2.8096273  14.8004190   4.5695283  -2.9161690  13.4578810
   0.4780000   0.0430000  14.7960000   0.4040000   1.1750000  15.2940000
  -0.2790000  -0.3180000  13.7490000  -0.1426968  -1.2047509  13.2851104
  -1.2680000   0.6080000  13.1980000  -0.7874843   1.5208956  12.8461117
  -2.0290000  -0.0340000  12.0200000  -2.2908292  -1.0581409  12.2858575
  -3.3040000   0.7530000  11.7050000  -3.0429244   1.7771894  11.4385856
  -3.8251418   0.2827933  10.8710831  -3.9529168   0.7600925  12.5807616
  -1.1580000  -0.0910000  10.7790000  -0.2680090  -0.6852455  10.9860996
  -1.7173554  -0.5477730   9.9625567  -0.8620005   0.9190122  10.4955206
  -2.2230000   1.0680000  14.2960000  -2.4710000   2.2660000  14.4660000
  -2.7430000   0.1170000  15.0760000  -2.5244306  -0.8564030  14.9184775
  -3.6840000   0.4520000  16.1430000  -4.5319950   0.9994638  15.7315549
  -4.2020000  -0.8200000  16.8110000  -3.3428022  -1.4757779  16.9518321
  -4.5985729  -0.5277258  17.7833198  -5.2710000  -1.5510000  16.0300000
  -4.7661540  -2.0323145  15.1924036  -5.7608681  -2.3083054  16.6420620
  -6.3310000  -0.6090000  15.4820000  -6.2030000  -0.0960000  14.3660000
  -7.3520000  -0.3270000  16.2880000  -8.0837504   0.2937120  15.9727868
  -7.3903188  -0.7350206  17.2111209  -3.0470000   1.3630000  17.1840000
  -3.6680000   2.3350000  17.6380000  -1.8180000   1.0420000  17.5940000
  -1.3797829   0.1918050  17.2696026  -1.1090000   1.8540000  18.5790000
  -1.6826367   1.9222341  19.5033291   0.2470000   1.1930000  18.8890000
   0.0344843   0.1836968  19.2414818   0.8034214   1.1408421  17.9531716
   1.0860000   1.9390000  19.9440000   0.8730000   3.1400000  20.2160000
   1.9920000   1.2930000  20.5130000  -0.9550000   3.2840000  18.0800000
  -1.2810000   4.2400000  18.7900000  -0.4880000   3.4510000  16.8420000
  -0.2307043   2.6675963  16.2587532  -0.2710000   4.7980000  16.3260000
   0.2638882   5.4045480  17.0568169   0.5320000   4.7480000  15.0160000
   0.0027806   4.1190203  14.3001705   0.6980000   6.1460000  14.4370000
   1.2275825   6.7754789  15.1521219   1.2688468   6.0905114  13.5100935
  -0.2833950   6.5744765  14.2336015   1.9050000   4.1160000  15.2650000
   2.4002088   4.6923870  16.0464391   1.7438362   3.0958669  15.6135028
   2.7830000   4.0940000  14.0150000   2.9449986   5.1138838  13.6661542
   3.7427106   3.6350327  14.2524949   2.2886246   3.5173652  13.2332167
  -1.5960000   5.5120000  16.1230000  -1.6750000   6.7420000  16.2590000
  -2.6480000   4.7660000  15.7760000  -2.5534917   3.7807608  15.5748253
  -3.9650000   5.3800000  15.6270000  -3.9250656   6.1633220  14.8700911
  -4.9920000   4.3360000  15.1950000  -4.5137722   3.3580342  15.2495922
  -5.8211455   4.3743621  15.9015028  -5.5190000   4.5670000  13.7780000
  -6.2611631   5.3630525  13.8379592  -4.6893551   4.8910218  13.1496701
  -6.1550000   3.3270000  13.1760000  -6.5800000   2.4470000  13.9500000
  -6.2150000   3.2250000  11.9300000  -4.4010000   6.0420000  16.9250000
  -4.9210000   7.1630000  16.9150000  -4.1890000   5.3580000  18.0500000
  -3.8562102   4.4049073  18.0189423  -4.4930000   5.9420000  19.3510000
  -5.5432082   6.2328509  19.3748259  -4.2470000   4.9100000  20.4510000
  -4.8704544   4.0336507  20.2737551  -3.1974956   4.6157004  20.4456898
  -4.5974525   5.5172453  21.8052749  -3.9740385   6.3934375  21.9834405
  -5.6469974   5.8113858  21.8115081  -4.3519736   4.4874394  22.9029383
  -4.9754261   3.6110889  22.7256934  -3.3024689   4.1931420  22.8976283
  -4.7024286   5.0946851  24.2572130  -4.0790157   5.9708779  24.4353790
  -5.7519731   5.3888220  24.2634453  -4.4658009   4.1020202  25.3152881
  -3.4932334   3.8296532  25.3099637  -4.6979064   4.5041949  26.2122176
  -5.0436906   3.2902157  25.1506182  -3.6700000   7.2010000  19.5970000
  -4.1990000   8.2090000  20.0760000  -2.3760000   7.1650000  19.2650000
  -1.9544891   6.3247093  18.8957583  -1.5210000   8.3290000  19.4870000
  -1.5972953   8.6494147  20.5260441  -0.0580000   7.9880000  19.1860000
  -0.0058216   7.7371546  18.1265411   0.5201026   8.8928416  19.3735078
   0.5120000   6.8460000  20.0040000   0.4334214   7.0929679  21.0627413
  -0.0649300   5.9444457  19.7979570   1.9690000   6.5750000  19.6760000
   2.7660000   7.5040000  19.5120000   2.3250000   5.3010000  19.5820000
   3.2821913   5.0619356  19.3658184   1.6373022   4.5756444  19.7270252
  -1.9590000   9.5200000  18.6450000  -1.8650000  10.6690000  19.0950000
  -2.4100000   9.2720000  17.4150000  -2.4067219   8.3382830  17.0299529
  -2.8440000  10.3710000  16.5600000  -2.0564173  11.1245192  16.5646291
  -3.0700000   9.8740000  15.1200000  -2.1477447   9.4372378  14.7368756
  -4.1723066   8.8201988  15.1130957  -5.0950620   9.2563775  15.4956806
  -4.3326722   8.4680787  14.0940790  -3.8781866   7.9818600  15.7445865
  -3.4821490  11.0465836  14.2363674  -4.4046429  11.4836025  14.6186242
  -2.6945666  11.8001034  14.2409983  -3.7059462  10.5544334  12.8104190
  -4.4937686   9.8011702  12.8049202  -4.0005641  11.3921918  12.1783902
  -2.7836922  10.1176687  12.4272950  -4.0980000  11.0250000  17.1290000
  -4.2020000  12.2560000  17.1800000  -5.0570000  10.2140000  17.5850000
  -4.9571918   9.2091434  17.5649774  -6.3190000  10.7740000  18.0530000
  -6.6894988  11.5048644  17.3342045  -7.3660000   9.6680000  18.2100000
  -8.3498304  10.1310748  18.2857541  -7.3318466   9.0311621  17.3260481
  -7.1230000   8.8860000  19.3640000  -7.7940007   8.2031155  19.4348994
  -6.1750000  11.5470000  19.3560000  -7.0790000  12.3170000  19.7000000
  -5.0690000  11.3830000  20.0690000  -4.4212369  10.6507645  19.8153596
  -4.8090000  12.1430000  21.2760000  -5.7365077  12.5390459  21.6894929
  -4.1700000  11.2150000  22.3100000  -3.1932942  10.8838693  21.9571581
  -4.0543086  11.7404019  23.2579812  -5.0830000   9.9950000  22.5090000
  -6.0644452  10.3806441  22.7849435  -5.1483962   9.4942926  21.5430214
  -4.6170000   9.0110000  23.5550000  -3.6540000   9.3100000  24.2880000
  -5.2290000   7.9240000  23.6400000  -3.9730000  13.3870000  20.9840000
  -3.3820000  13.9660000  21.9030000  -3.9280000  13.7940000  19.7120000
  -4.2388227  13.1224008  19.0246551  -3.4010000  15.0790000  19.2400000
  -3.6278472  15.1348676  18.1753318  -4.1020000  16.2420000  19.9520000
  -5.1791693  16.1619935  19.8056972  -3.8768712  16.2048639  21.0178508
  -3.6384529  17.4815225  19.4101427  -4.0773573  18.2096919  19.8559364
  -1.8920000  15.2100000  19.3990000  -1.2850000  16.1080000  18.8140000
  -1.2748419  14.4504617  20.1424091
